
     Program PWSCF v.6.7MaX starts on  2Aug2022 at 11:28:34 

     This program is part of the open-source Quantum ESPRESSO suite
     for quantum simulation of materials; please cite
         "P. Giannozzi et al., J. Phys.:Condens. Matter 21 395502 (2009);
         "P. Giannozzi et al., J. Phys.:Condens. Matter 29 465901 (2017);
          URL http://www.quantum-espresso.org", 
     in publications or presentations arising from this work. More details at
     http://www.quantum-espresso.org/quote

     Parallel version (MPI), running on     1 processors

     MPI processes distributed on     1 nodes
     Waiting for input...
     Reading input from standard input

     Current dimensions of program PWSCF are:
     Max number of different atomic species (ntypx) = 10
     Max number of k-points (npk) =  40000
     Max angular momentum in pseudopotentials (lmaxx) =  3
     file C.pbe-n-kjpaw_psl.1.0.0.UPF: wavefunction(s)  2S 2P renormalized
     file O.pbe-n-kjpaw_psl.1.0.0.UPF: wavefunction(s)  2S 2P renormalized

     Subspace diagonalization in iterative solution of the eigenvalue problem:
     a serial algorithm will be used


     G-vector sticks info
     --------------------
     sticks:   dense  smooth     PW     G-vecs:    dense   smooth      PW
     Sum        5089    5089   1281               273209   273209   34265



     bravais-lattice index     =            0
     lattice parameter (alat)  =      15.1178  a.u.
     unit-cell volume          =    3455.1473 (a.u.)^3
     number of atoms/cell      =            2
     number of atomic types    =            2
     number of electrons       =        10.00
     number of Kohn-Sham states=            8
     kinetic-energy cutoff     =      70.0000  Ry
     charge density cutoff     =     280.0000  Ry
     scf convergence threshold =      1.0E-06
     mixing beta               =       0.7000
     number of iterations used =            8  plain     mixing
     Exchange-correlation= SLA  PW   PBX  PBC
                           (   1   4   3   4   0   0   0)

     celldm(1)=  15.117809  celldm(2)=   0.000000  celldm(3)=   0.000000
     celldm(4)=   0.000000  celldm(5)=   0.000000  celldm(6)=   0.000000

     crystal axes: (cart. coord. in units of alat)
               a(1) = (   1.000000   0.000000   0.000000 )  
               a(2) = (   0.000000   1.000000   0.000000 )  
               a(3) = (   0.000000   0.000000   1.000000 )  

     reciprocal axes: (cart. coord. in units 2 pi/alat)
               b(1) = (  1.000000  0.000000  0.000000 )  
               b(2) = (  0.000000  1.000000  0.000000 )  
               b(3) = (  0.000000  0.000000  1.000000 )  


     PseudoPot. # 1 for C  read from file:
     ./C.pbe-n-kjpaw_psl.1.0.0.UPF
     MD5 check sum: 5f16ad9a65e90284d1d834d4ab3b0f7d
     Pseudo is Projector augmented-wave + core cor, Zval =  4.0
     Generated using &quot;atomic&quot; code by A. Dal Corso  v.6.3
     Shape of augmentation charge: PSQ
     Using radial grid of 1073 points,  4 beta functions with: 
                l(1) =   0
                l(2) =   0
                l(3) =   1
                l(4) =   1
     Q(r) pseudized with 0 coefficients 


     PseudoPot. # 2 for O  read from file:
     ./O.pbe-n-kjpaw_psl.1.0.0.UPF
     MD5 check sum: e99d9cef9b487d1ca56f5b95ecd0fd7a
     Pseudo is Projector augmented-wave + core cor, Zval =  6.0
     Generated using &quot;atomic&quot; code by A. Dal Corso  v.6.3
     Shape of augmentation charge: PSQ
     Using radial grid of 1095 points,  4 beta functions with: 
                l(1) =   0
                l(2) =   0
                l(3) =   1
                l(4) =   1
     Q(r) pseudized with 0 coefficients 


     atomic species   valence    mass     pseudopotential
        C              4.00    12.01070     C ( 1.00)
        O              6.00    15.99940     O ( 1.00)

     No symmetry found



   Cartesian axes

     site n.     atom                  positions (alat units)
         1           C   tau(   1) = (   0.5000000   0.4100000   0.5000000  )
         2           O   tau(   2) = (   0.5000000   0.5900000   0.5000000  )

     number of k points=     1
                       cart. coord. in units 2pi/alat
        k(    1) = (   0.0000000   0.0000000   0.0000000), wk =   2.0000000

     Dense  grid:   273209 G-vectors     FFT dimensions: (  81,  81,  81)

     Estimated max dynamical RAM per process >     355.14 MB

     Initial potential from superposition of free atoms

     starting charge    9.99996, renormalised to   10.00000

     negative rho (up, down):  2.410E-04 0.000E+00
     Starting wfcs are    8 randomized atomic wfcs
     Checking if some PAW data can be deallocated... 

     total cpu time spent up to now is        1.9 secs

     Self-consistent Calculation

     iteration #  1     ecut=    70.00 Ry     beta= 0.70
     Davidson diagonalization with overlap
     ethr =  1.00E-02,  avg # of iterations =  6.0

     negative rho (up, down):  2.835E-04 0.000E+00

     total cpu time spent up to now is        4.0 secs

     total energy              =     -59.60170615 Ry
     estimated scf accuracy    <       0.34602744 Ry

     iteration #  2     ecut=    70.00 Ry     beta= 0.70
     Davidson diagonalization with overlap
     ethr =  3.46E-03,  avg # of iterations =  5.0

     negative rho (up, down):  2.956E-04 0.000E+00

     total cpu time spent up to now is        5.7 secs

     total energy              =     -59.21439972 Ry
     estimated scf accuracy    <       5.47803818 Ry

     iteration #  3     ecut=    70.00 Ry     beta= 0.70
     Davidson diagonalization with overlap
     ethr =  3.46E-03,  avg # of iterations =  2.0

     negative rho (up, down):  2.768E-04 0.000E+00

     total cpu time spent up to now is        7.3 secs

     total energy              =     -59.74578332 Ry
     estimated scf accuracy    <       0.05048591 Ry

     iteration #  4     ecut=    70.00 Ry     beta= 0.70
     Davidson diagonalization with overlap
     ethr =  5.05E-04,  avg # of iterations = 10.0

     negative rho (up, down):  3.839E-04 0.000E+00

     total cpu time spent up to now is        9.4 secs

     total energy              =     -59.81381025 Ry
     estimated scf accuracy    <       0.04526414 Ry

     iteration #  5     ecut=    70.00 Ry     beta= 0.70
     Davidson diagonalization with overlap
     ethr =  4.53E-04,  avg # of iterations =  1.0

     negative rho (up, down):  4.671E-04 0.000E+00

     total cpu time spent up to now is       10.8 secs

     total energy              =     -59.81441896 Ry
     estimated scf accuracy    <       0.00710738 Ry

     iteration #  6     ecut=    70.00 Ry     beta= 0.70
     Davidson diagonalization with overlap
     ethr =  7.11E-05,  avg # of iterations =  2.0

     negative rho (up, down):  4.976E-04 0.000E+00

     total cpu time spent up to now is       12.0 secs

     total energy              =     -59.81559776 Ry
     estimated scf accuracy    <       0.00008349 Ry

     iteration #  7     ecut=    70.00 Ry     beta= 0.70
     Davidson diagonalization with overlap
     ethr =  8.35E-07,  avg # of iterations = 11.0

     negative rho (up, down):  5.052E-04 0.000E+00

     total cpu time spent up to now is       14.0 secs

     total energy              =     -59.81636727 Ry
     estimated scf accuracy    <       0.00063466 Ry

     iteration #  8     ecut=    70.00 Ry     beta= 0.70
     Davidson diagonalization with overlap
     ethr =  8.35E-07,  avg # of iterations =  1.0

     negative rho (up, down):  5.108E-04 0.000E+00

     total cpu time spent up to now is       15.2 secs

     total energy              =     -59.81629190 Ry
     estimated scf accuracy    <       0.00032467 Ry

     iteration #  9     ecut=    70.00 Ry     beta= 0.70
     Davidson diagonalization with overlap
     ethr =  8.35E-07,  avg # of iterations =  2.0

     negative rho (up, down):  5.120E-04 0.000E+00

     total cpu time spent up to now is       16.4 secs

     total energy              =     -59.81631616 Ry
     estimated scf accuracy    <       0.00001330 Ry

     iteration # 10     ecut=    70.00 Ry     beta= 0.70
     Davidson diagonalization with overlap
     ethr =  1.33E-07,  avg # of iterations =  5.0

     negative rho (up, down):  5.114E-04 0.000E+00

     total cpu time spent up to now is       17.8 secs

     total energy              =     -59.81632949 Ry
     estimated scf accuracy    <       0.00000428 Ry

     iteration # 11     ecut=    70.00 Ry     beta= 0.70
     Davidson diagonalization with overlap
     ethr =  4.28E-08,  avg # of iterations =  1.0

     negative rho (up, down):  5.098E-04 0.000E+00

     total cpu time spent up to now is       19.0 secs

     total energy              =     -59.81632918 Ry
     estimated scf accuracy    <       0.00000102 Ry

     iteration # 12     ecut=    70.00 Ry     beta= 0.70
     Davidson diagonalization with overlap
     ethr =  1.02E-08,  avg # of iterations =  2.0

     negative rho (up, down):  5.089E-04 0.000E+00

     total cpu time spent up to now is       20.2 secs

     End of self-consistent calculation

          k = 0.0000 0.0000 0.0000 ( 34265 PWs)   bands (ev):

   -25.1623 -14.0015  -9.3116  -9.3116  -9.0392  -3.9530  -3.9530  -0.2405

     highest occupied, lowest unoccupied level (ev):    -9.0392   -3.9530

!    total energy              =     -59.81632943 Ry

     total all-electron energy =      -226.427317 Ry
     estimated scf accuracy    <       0.00000035 Ry

     The total energy is the sum of the following terms:
     one-electron contribution =     -67.23504697 Ry
     hartree contribution      =      35.36650505 Ry
     xc contribution           =     -11.25022656 Ry
     ewald contribution        =      -0.90278617 Ry
     one-center paw contrib.   =     -15.79477477 Ry

     convergence has been achieved in  12 iterations

     Writing output data file ./CO.save/

     init_run     :      1.54s CPU      1.80s WALL (       1 calls)
     electrons    :     16.76s CPU     18.31s WALL (       1 calls)

     Called by init_run:
     wfcinit      :      0.25s CPU      0.27s WALL (       1 calls)
     potinit      :      0.44s CPU      0.49s WALL (       1 calls)
     hinit0       :      0.48s CPU      0.53s WALL (       1 calls)

     Called by electrons:
     c_bands      :      6.72s CPU      6.74s WALL (      12 calls)
     sum_band     :      4.35s CPU      5.14s WALL (      12 calls)
     v_of_rho     :      2.56s CPU      2.61s WALL (      13 calls)
     newd         :      2.33s CPU      3.15s WALL (      13 calls)
     PAW_pot      :      0.68s CPU      0.68s WALL (      13 calls)
     mix_rho      :      0.68s CPU      0.70s WALL (      12 calls)

     Called by c_bands:
     init_us_2    :      0.15s CPU      0.15s WALL (      25 calls)
     cegterg      :      6.52s CPU      6.54s WALL (      12 calls)

     Called by *egterg:
     cdiaghg      :      0.01s CPU      0.02s WALL (      60 calls)
     h_psi        :      5.09s CPU      5.10s WALL (      61 calls)
     s_psi        :      0.31s CPU      0.31s WALL (      61 calls)
     g_psi        :      0.05s CPU      0.05s WALL (      48 calls)

     Called by h_psi:
     h_psi:calbec :      0.30s CPU      0.30s WALL (      61 calls)
     vloc_psi     :      4.44s CPU      4.45s WALL (      61 calls)
     add_vuspsi   :      0.32s CPU      0.32s WALL (      61 calls)

     General routines
     calbec       :      0.39s CPU      0.39s WALL (      73 calls)
     fft          :      1.21s CPU      1.24s WALL (     143 calls)
     ffts         :      0.11s CPU      0.11s WALL (      12 calls)
     fftw         :      4.00s CPU      4.01s WALL (     698 calls)

     Parallel routines

     PWSCF        :     18.43s CPU     20.29s WALL


   This run was terminated on:  11:28:55   2Aug2022            

=------------------------------------------------------------------------------=
   JOB DONE.
=------------------------------------------------------------------------------=
