ESCALE ; pCOHP file generated by LOBSTER. Energy is shifted such that the Fermi level lies at 0 eV.
         4          1        401  -1.57367e+01   4.31347e+00  -5.71160e+00 
Average
No.1:H2->O1(1.2151131634543459)
No.2:H3->O1(1.2200000000000273)
No.3:H3->H2(1.9163767896737218)
-10.02506   0.00000  -1.95611   0.00000  -2.84652   0.00000  -2.79330   0.00000  -0.22851
 -9.97494   0.00000  -1.95611   0.00000  -2.84652   0.00000  -2.79330   0.00000  -0.22851
 -9.92481   0.00000  -1.95611   0.00000  -2.84652   0.00000  -2.79330   0.00000  -0.22851
 -9.87469   0.00000  -1.95611   0.00000  -2.84652   0.00000  -2.79330   0.00000  -0.22851
 -9.82456   0.00000  -1.95611   0.00000  -2.84652   0.00000  -2.79330   0.00000  -0.22851
 -9.77444   0.00000  -1.95611   0.00000  -2.84652   0.00000  -2.79330   0.00000  -0.22851
 -9.72431   0.00000  -1.95611   0.00000  -2.84652   0.00000  -2.79330   0.00000  -0.22851
 -9.67419   0.00000  -1.95611   0.00000  -2.84652   0.00000  -2.79330   0.00000  -0.22851
 -9.62406   0.00000  -1.95611   0.00000  -2.84652   0.00000  -2.79330   0.00000  -0.22851
 -9.57393   0.00000  -1.95611   0.00000  -2.84652   0.00000  -2.79330   0.00000  -0.22851
 -9.52381   0.00000  -1.95611   0.00000  -2.84652   0.00000  -2.79330   0.00000  -0.22851
 -9.47368   0.00000  -1.95611   0.00000  -2.84652   0.00000  -2.79330   0.00000  -0.22851
 -9.42356   0.00000  -1.95611   0.00000  -2.84652   0.00000  -2.79330   0.00000  -0.22851
 -9.37343   0.00000  -1.95611   0.00000  -2.84652   0.00000  -2.79330   0.00000  -0.22851
 -9.32331   0.00000  -1.95611   0.00000  -2.84652   0.00000  -2.79330   0.00000  -0.22851
 -9.27318   0.00000  -1.95611   0.00000  -2.84652   0.00000  -2.79330   0.00000  -0.22851
 -9.22306   0.00000  -1.95611   0.00000  -2.84652   0.00000  -2.79330   0.00000  -0.22851
 -9.17293   0.00000  -1.95611   0.00000  -2.84652   0.00000  -2.79330   0.00000  -0.22851
 -9.12281   0.00000  -1.95611   0.00000  -2.84652   0.00000  -2.79330   0.00000  -0.22851
 -9.07268   0.00000  -1.95611   0.00000  -2.84652   0.00000  -2.79330   0.00000  -0.22851
 -9.02256   0.00000  -1.95611   0.00000  -2.84652   0.00000  -2.79330   0.00000  -0.22851
 -8.97243   0.00000  -1.95611   0.00000  -2.84652   0.00000  -2.79330   0.00000  -0.22851
 -8.92231   0.00000  -1.95611   0.00000  -2.84652   0.00000  -2.79330   0.00000  -0.22851
 -8.87218   0.00000  -1.95611   0.00000  -2.84652   0.00000  -2.79330   0.00000  -0.22851
 -8.82206   0.00000  -1.95611   0.00000  -2.84652   0.00000  -2.79330   0.00000  -0.22851
 -8.77193   0.00000  -1.95611   0.00000  -2.84652   0.00000  -2.79330   0.00000  -0.22851
 -8.72180   0.00000  -1.95611   0.00000  -2.84652   0.00000  -2.79330   0.00000  -0.22851
 -8.67168   0.00000  -1.95611   0.00000  -2.84652   0.00000  -2.79330   0.00000  -0.22851
 -8.62155   0.00000  -1.95611   0.00000  -2.84652   0.00000  -2.79330   0.00000  -0.22851
 -8.57143   0.00000  -1.95611   0.00000  -2.84652   0.00000  -2.79330   0.00000  -0.22851
 -8.52130   0.00000  -1.95611   0.00000  -2.84652   0.00000  -2.79330   0.00000  -0.22851
 -8.47118   0.00000  -1.95611   0.00000  -2.84652   0.00000  -2.79330   0.00000  -0.22851
 -8.42105   0.00000  -1.95611   0.00000  -2.84652   0.00000  -2.79330   0.00000  -0.22851
 -8.37093   0.00000  -1.95611   0.00000  -2.84652   0.00000  -2.79330   0.00000  -0.22851
 -8.32080   0.00000  -1.95611   0.00000  -2.84652   0.00000  -2.79330   0.00000  -0.22851
 -8.27068   0.00000  -1.95611   0.00000  -2.84652   0.00000  -2.79330   0.00000  -0.22851
 -8.22055   0.00000  -1.95611   0.00000  -2.84652   0.00000  -2.79330   0.00000  -0.22851
 -8.17043   0.00000  -1.95611   0.00000  -2.84652   0.00000  -2.79330   0.00000  -0.22851
 -8.12030   0.00000  -1.95611   0.00000  -2.84652   0.00000  -2.79330   0.00000  -0.22851
 -8.07018   0.00000  -1.95611   0.00000  -2.84652   0.00000  -2.79330   0.00000  -0.22851
 -8.02005   0.00000  -1.95611   0.00000  -2.84652   0.00000  -2.79330   0.00000  -0.22851
 -7.96992   0.00000  -1.95611   0.00000  -2.84652   0.00000  -2.79330   0.00000  -0.22851
 -7.91980   0.00000  -1.95611   0.00000  -2.84652   0.00000  -2.79330   0.00000  -0.22851
 -7.86967   0.00000  -1.95611   0.00000  -2.84652   0.00000  -2.79330   0.00000  -0.22851
 -7.81955   0.00000  -1.95611   0.00000  -2.84652   0.00000  -2.79330   0.00000  -0.22851
 -7.76942   0.00000  -1.95611   0.00000  -2.84652   0.00000  -2.79330   0.00000  -0.22851
 -7.71930   0.00000  -1.95611   0.00000  -2.84652   0.00000  -2.79330   0.00000  -0.22851
 -7.66917   0.00000  -1.95611   0.00000  -2.84652   0.00000  -2.79330   0.00000  -0.22851
 -7.61905   0.00000  -1.95611   0.00000  -2.84652   0.00000  -2.79330   0.00000  -0.22851
 -7.56892   0.00000  -1.95611   0.00000  -2.84652   0.00000  -2.79330   0.00000  -0.22851
 -7.51880   0.00000  -1.95611   0.00000  -2.84652   0.00000  -2.79330   0.00000  -0.22851
 -7.46867   0.00000  -1.95611   0.00000  -2.84652   0.00000  -2.79330   0.00000  -0.22851
 -7.41855   0.00000  -1.95611   0.00000  -2.84652   0.00000  -2.79330   0.00000  -0.22851
 -7.36842   0.00000  -1.95611   0.00000  -2.84652   0.00000  -2.79330   0.00000  -0.22851
 -7.31830   0.00000  -1.95611   0.00000  -2.84652   0.00000  -2.79330   0.00000  -0.22851
 -7.26817   0.00000  -1.95611   0.00000  -2.84652   0.00000  -2.79330   0.00000  -0.22851
 -7.21805   0.00000  -1.95611   0.00000  -2.84652   0.00000  -2.79330   0.00000  -0.22851
 -7.16792   0.00000  -1.95611   0.00000  -2.84652   0.00000  -2.79330   0.00000  -0.22851
 -7.11779   0.00000  -1.95611   0.00000  -2.84652   0.00000  -2.79330   0.00000  -0.22851
 -7.06767   0.00000  -1.95611   0.00000  -2.84652   0.00000  -2.79330   0.00000  -0.22851
 -7.01754   0.00000  -1.95611   0.00000  -2.84652   0.00000  -2.79330   0.00000  -0.22851
 -6.96742   0.00000  -1.95611   0.00000  -2.84652   0.00000  -2.79330   0.00000  -0.22851
 -6.91729   0.00000  -1.95611   0.00000  -2.84652   0.00000  -2.79330   0.00000  -0.22851
 -6.86717   0.00000  -1.95611   0.00000  -2.84652   0.00000  -2.79330   0.00000  -0.22851
 -6.81704   0.00000  -1.95611   0.00000  -2.84652   0.00000  -2.79330   0.00000  -0.22851
 -6.76692   0.00000  -1.95611   0.00000  -2.84652   0.00000  -2.79330   0.00000  -0.22851
 -6.71679   0.00000  -1.95611   0.00000  -2.84652   0.00000  -2.79330   0.00000  -0.22851
 -6.66667   0.00000  -1.95611   0.00000  -2.84652   0.00000  -2.79330   0.00000  -0.22851
 -6.61654   0.00000  -1.95611   0.00000  -2.84652   0.00000  -2.79330   0.00000  -0.22851
 -6.56642   0.00000  -1.95611   0.00000  -2.84652   0.00000  -2.79330   0.00000  -0.22851
 -6.51629  -0.00000  -1.95611  -0.00000  -2.84652  -0.00000  -2.79330   0.00000  -0.22851
 -6.46617  -0.00000  -1.95611  -0.00000  -2.84652  -0.00000  -2.79330   0.00000  -0.22851
 -6.41604  -0.00000  -1.95611  -0.00000  -2.84652  -0.00000  -2.79330   0.00000  -0.22851
 -6.36591  -0.00000  -1.95611  -0.00000  -2.84652  -0.00000  -2.79330   0.00000  -0.22851
 -6.31579  -0.00000  -1.95611  -0.00000  -2.84652  -0.00000  -2.79330   0.00000  -0.22851
 -6.26566  -0.00000  -1.95611  -0.00000  -2.84652  -0.00000  -2.79330   0.00000  -0.22851
 -6.21554  -0.00000  -1.95611  -0.00000  -2.84652  -0.00000  -2.79330   0.00000  -0.22851
 -6.16541  -0.00000  -1.95611  -0.00000  -2.84652  -0.00000  -2.79330   0.00000  -0.22851
 -6.11529  -0.00000  -1.95611  -0.00000  -2.84652  -0.00000  -2.79330   0.00000  -0.22851
 -6.06516  -0.00001  -1.95611  -0.00002  -2.84652  -0.00002  -2.79330   0.00000  -0.22851
 -6.01504  -0.00005  -1.95611  -0.00009  -2.84653  -0.00009  -2.79330   0.00002  -0.22851
 -5.96491  -0.00027  -1.95613  -0.00044  -2.84655  -0.00044  -2.79333   0.00008  -0.22850
 -5.91479  -0.00118  -1.95619  -0.00196  -2.84665  -0.00196  -2.79342   0.00037  -0.22848
 -5.86466  -0.00460  -1.95642  -0.00763  -2.84703  -0.00764  -2.79381   0.00145  -0.22841
 -5.81454  -0.01585  -1.95721  -0.02625  -2.84835  -0.02629  -2.79513   0.00498  -0.22816
 -5.76441  -0.04819  -1.95963  -0.07981  -2.85235  -0.07991  -2.79913   0.01514  -0.22740
 -5.71429  -0.12936  -1.96611  -0.21423  -2.86308  -0.21450  -2.80988   0.04065  -0.22537
 -5.66416  -0.30664  -1.98148  -0.50783  -2.88854  -0.50846  -2.83537   0.09637  -0.22053
 -5.61404  -0.64188  -2.01366  -1.06301  -2.94182  -1.06434  -2.88872   0.20172  -0.21042
 -5.56391  -1.18650  -2.07313  -1.96497  -3.04032  -1.96743  -2.98734   0.37288  -0.19173
 -5.51378  -1.93681  -2.17021  -3.20756  -3.20110  -3.21157  -3.14832   0.60868  -0.16122
 -5.46366  -2.79198  -2.31016  -4.62379  -3.43287  -4.62957  -3.38038   0.87743  -0.11724
 -5.41353  -3.55420  -2.48832  -5.88611  -3.72791  -5.89348  -3.67579   1.11698  -0.06125
 -5.36341  -3.99559  -2.68860  -6.61710  -4.05959  -6.62538  -4.00789   1.25570   0.00169
 -5.31328  -3.96671  -2.88743  -6.56926  -4.38888  -6.57748  -4.33759   1.24662   0.06418
 -5.26316  -3.47767  -3.06175  -5.75937  -4.67757  -5.76657  -4.62664   1.09293   0.11896
 -5.21303  -2.69250  -3.19671  -4.45904  -4.90108  -4.46462  -4.85043   0.84617   0.16138
 -5.16291  -1.84090  -3.28899  -3.04871  -5.05390  -3.05252  -5.00344   0.57854   0.19038
 -5.11278  -1.11149  -3.34470  -1.84074  -5.14617  -1.84305  -5.09582   0.34931   0.20788
 -5.06266  -0.59263  -3.37441  -0.98146  -5.19536  -0.98269  -5.14508   0.18625   0.21722
 -5.01253  -0.27904  -3.38839  -0.46211  -5.21852  -0.46269  -5.16827   0.08769   0.22162
 -4.96241  -0.11602  -3.39421  -0.19214  -5.22816  -0.19238  -5.17791   0.03646   0.22344
 -4.91228  -0.04260  -3.39634  -0.07054  -5.23169  -0.07063  -5.18145   0.01339   0.22411
 -4.86216  -0.01381  -3.39704  -0.02287  -5.23284  -0.02290  -5.18260   0.00434   0.22433
 -4.81203  -0.00395  -3.39723  -0.00655  -5.23317  -0.00656  -5.18293   0.00124   0.22439
 -4.76190  -0.00100  -3.39728  -0.00166  -5.23325  -0.00166  -5.18301   0.00031   0.22441
 -4.71178  -0.00022  -3.39730  -0.00037  -5.23327  -0.00037  -5.18303   0.00007   0.22441
 -4.66165  -0.00004  -3.39730  -0.00007  -5.23327  -0.00007  -5.18304   0.00001   0.22441
 -4.61153  -0.00001  -3.39730  -0.00001  -5.23327  -0.00001  -5.18304   0.00000   0.22441
 -4.56140  -0.00000  -3.39730  -0.00000  -5.23327  -0.00000  -5.18304   0.00000   0.22441
 -4.51128  -0.00000  -3.39730  -0.00000  -5.23327  -0.00000  -5.18304   0.00000   0.22441
 -4.46115  -0.00000  -3.39730  -0.00000  -5.23327  -0.00000  -5.18304   0.00000   0.22441
 -4.41103  -0.00000  -3.39730  -0.00000  -5.23327  -0.00000  -5.18304   0.00000   0.22441
 -4.36090  -0.00000  -3.39730  -0.00000  -5.23327  -0.00000  -5.18304   0.00000   0.22441
 -4.31078  -0.00000  -3.39730  -0.00000  -5.23327  -0.00000  -5.18304   0.00000   0.22441
 -4.26065  -0.00000  -3.39730  -0.00000  -5.23327  -0.00000  -5.18304   0.00000   0.22441
 -4.21053  -0.00000  -3.39730  -0.00000  -5.23327  -0.00000  -5.18304  -0.00000   0.22441
 -4.16040  -0.00000  -3.39730  -0.00000  -5.23327  -0.00000  -5.18304  -0.00000   0.22441
 -4.11028  -0.00000  -3.39730  -0.00000  -5.23327  -0.00000  -5.18304  -0.00000   0.22441
 -4.06015  -0.00000  -3.39730  -0.00000  -5.23327  -0.00000  -5.18304  -0.00000   0.22441
 -4.01003  -0.00000  -3.39730  -0.00000  -5.23327  -0.00000  -5.18304  -0.00000   0.22441
 -3.95990  -0.00000  -3.39730  -0.00000  -5.23327  -0.00000  -5.18304  -0.00000   0.22441
 -3.90977  -0.00000  -3.39730  -0.00000  -5.23327  -0.00000  -5.18304  -0.00000   0.22441
 -3.85965  -0.00000  -3.39730  -0.00000  -5.23327  -0.00000  -5.18304  -0.00000   0.22441
 -3.80952  -0.00002  -3.39730  -0.00002  -5.23327  -0.00002  -5.18304  -0.00001   0.22441
 -3.75940  -0.00010  -3.39730  -0.00011  -5.23328  -0.00012  -5.18304  -0.00007   0.22441
 -3.70927  -0.00042  -3.39733  -0.00048  -5.23330  -0.00049  -5.18307  -0.00030   0.22440
 -3.65915  -0.00157  -3.39740  -0.00177  -5.23339  -0.00182  -5.18316  -0.00110   0.22434
 -3.60902  -0.00513  -3.39766  -0.00580  -5.23368  -0.00598  -5.18346  -0.00362   0.22416
 -3.55890  -0.01484  -3.39841  -0.01678  -5.23452  -0.01729  -5.18433  -0.01046   0.22363
 -3.50877  -0.03792  -3.40031  -0.04286  -5.23667  -0.04418  -5.18654  -0.02673   0.22229
 -3.45865  -0.08554  -3.40459  -0.09669  -5.24152  -0.09966  -5.19154  -0.06029   0.21927
 -3.40852  -0.17041  -3.41314  -0.19261  -5.25117  -0.19852  -5.20149  -0.12010   0.21325
 -3.35840  -0.29977  -3.42816  -0.33882  -5.26816  -0.34922  -5.21899  -0.21126   0.20266
 -3.30827  -0.46568  -3.45150  -0.52635  -5.29454  -0.54250  -5.24619  -0.32819   0.18621
 -3.25815  -0.63884  -3.48353  -0.72207  -5.33073  -0.74423  -5.28349  -0.45022   0.16365
 -3.20802  -0.77394  -3.52232  -0.87477  -5.37458  -0.90162  -5.32868  -0.54543   0.13631
 -3.15789  -0.82800  -3.56382  -0.93587  -5.42149  -0.96459  -5.37703  -0.58353   0.10706
 -3.10777  -0.78228  -3.60304  -0.88420  -5.46581  -0.91133  -5.42272  -0.55131   0.07942
 -3.05764  -0.65268  -3.63575  -0.73772  -5.50279  -0.76036  -5.46083  -0.45997   0.05637
 -3.00752  -0.48090  -3.65986  -0.54355  -5.53004  -0.56023  -5.48891  -0.33891   0.03938
 -2.95739  -0.31290  -3.67554  -0.35367  -5.54777  -0.36452  -5.50718  -0.22051   0.02832
 -2.90727  -0.17979  -3.68455  -0.20322  -5.55795  -0.20945  -5.51768  -0.12671   0.02197
 -2.85714  -0.09123  -3.68913  -0.10311  -5.56312  -0.10628  -5.52301  -0.06429   0.01875
 -2.80702  -0.04088  -3.69118  -0.04620  -5.56544  -0.04762  -5.52540  -0.02881   0.01731
 -2.75689  -0.01617  -3.69199  -0.01828  -5.56635  -0.01884  -5.52634  -0.01140   0.01673
 -2.70677  -0.00565  -3.69227  -0.00639  -5.56667  -0.00658  -5.52667  -0.00398   0.01654
 -2.65664  -0.00174  -3.69236  -0.00197  -5.56677  -0.00203  -5.52677  -0.00123   0.01647
 -2.60652  -0.00048  -3.69238  -0.00054  -5.56680  -0.00055  -5.52680  -0.00033   0.01646
 -2.55639  -0.00011  -3.69239  -0.00013  -5.56681  -0.00013  -5.52681  -0.00008   0.01645
 -2.50627  -0.00002  -3.69239  -0.00003  -5.56681  -0.00003  -5.52681  -0.00002   0.01645
 -2.45614  -0.00000  -3.69239  -0.00001  -5.56681  -0.00001  -5.52681  -0.00000   0.01645
 -2.40602  -0.00000  -3.69239  -0.00000  -5.56681  -0.00000  -5.52681  -0.00000   0.01645
 -2.35589  -0.00000  -3.69239  -0.00000  -5.56681  -0.00000  -5.52681  -0.00000   0.01645
 -2.30576  -0.00000  -3.69239  -0.00000  -5.56681  -0.00000  -5.52681  -0.00000   0.01645
 -2.25564  -0.00000  -3.69239  -0.00000  -5.56681  -0.00000  -5.52681  -0.00000   0.01645
 -2.20551  -0.00000  -3.69239  -0.00000  -5.56681  -0.00000  -5.52681  -0.00000   0.01645
 -2.15539  -0.00000  -3.69239  -0.00000  -5.56681  -0.00000  -5.52681  -0.00000   0.01645
 -2.10526  -0.00000  -3.69239  -0.00000  -5.56681  -0.00000  -5.52681  -0.00000   0.01645
 -2.05514  -0.00000  -3.69239  -0.00000  -5.56681  -0.00000  -5.52681  -0.00000   0.01645
 -2.00501  -0.00000  -3.69239  -0.00000  -5.56681  -0.00000  -5.52681  -0.00000   0.01645
 -1.95489  -0.00000  -3.69239  -0.00000  -5.56681  -0.00000  -5.52681   0.00000   0.01645
 -1.90476  -0.00000  -3.69239  -0.00000  -5.56681  -0.00000  -5.52681  -0.00000   0.01645
 -1.85464  -0.00000  -3.69239   0.00000  -5.56681  -0.00000  -5.52681  -0.00000   0.01645
 -1.80451   0.00000  -3.69239   0.00000  -5.56681   0.00000  -5.52681  -0.00000   0.01645
 -1.75439   0.00000  -3.69239   0.00000  -5.56681   0.00000  -5.52681  -0.00000   0.01645
 -1.70426   0.00000  -3.69239   0.00000  -5.56681   0.00000  -5.52681  -0.00000   0.01645
 -1.65414   0.00000  -3.69239   0.00000  -5.56681   0.00000  -5.52681  -0.00000   0.01645
 -1.60401   0.00000  -3.69239   0.00000  -5.56681   0.00000  -5.52681  -0.00000   0.01645
 -1.55388   0.00000  -3.69239   0.00000  -5.56681   0.00000  -5.52681  -0.00000   0.01645
 -1.50376   0.00000  -3.69239   0.00000  -5.56681   0.00000  -5.52681  -0.00000   0.01645
 -1.45363   0.00000  -3.69239   0.00000  -5.56681   0.00000  -5.52681  -0.00000   0.01645
 -1.40351   0.00000  -3.69239   0.00000  -5.56681   0.00000  -5.52681  -0.00000   0.01645
 -1.35338   0.00000  -3.69239   0.00000  -5.56681   0.00000  -5.52681  -0.00000   0.01645
 -1.30326   0.00000  -3.69239   0.00000  -5.56681   0.00000  -5.52681  -0.00000   0.01645
 -1.25313   0.00000  -3.69239   0.00000  -5.56681   0.00000  -5.52681  -0.00000   0.01645
 -1.20301   0.00000  -3.69239   0.00000  -5.56681   0.00000  -5.52681  -0.00000   0.01645
 -1.15288   0.00000  -3.69239   0.00000  -5.56681   0.00000  -5.52681  -0.00000   0.01645
 -1.10276   0.00000  -3.69239   0.00000  -5.56681   0.00000  -5.52681  -0.00000   0.01645
 -1.05263   0.00000  -3.69239   0.00001  -5.56681   0.00001  -5.52681  -0.00000   0.01645
 -1.00251   0.00000  -3.69239   0.00001  -5.56681   0.00001  -5.52681  -0.00000   0.01645
 -0.95238   0.00000  -3.69239   0.00001  -5.56681   0.00001  -5.52681  -0.00000   0.01645
 -0.90226   0.00000  -3.69239   0.00001  -5.56680   0.00001  -5.52681  -0.00000   0.01645
 -0.85213   0.00000  -3.69239   0.00001  -5.56680   0.00000  -5.52681  -0.00000   0.01645
 -0.80201   0.00000  -3.69239   0.00000  -5.56680   0.00000  -5.52681  -0.00000   0.01645
 -0.75188   0.00000  -3.69239   0.00000  -5.56680   0.00000  -5.52681  -0.00000   0.01645
 -0.70175   0.00000  -3.69239   0.00000  -5.56680   0.00000  -5.52681  -0.00000   0.01645
 -0.65163   0.00000  -3.69239   0.00000  -5.56680   0.00000  -5.52681  -0.00000   0.01645
 -0.60150   0.00000  -3.69239   0.00000  -5.56680   0.00000  -5.52681  -0.00000   0.01645
 -0.55138   0.00000  -3.69239   0.00000  -5.56680   0.00000  -5.52681  -0.00000   0.01645
 -0.50125   0.00000  -3.69239   0.00000  -5.56680   0.00000  -5.52681  -0.00000   0.01645
 -0.45113   0.00000  -3.69239   0.00000  -5.56680   0.00000  -5.52681  -0.00000   0.01645
 -0.40100   0.00000  -3.69239   0.00000  -5.56680   0.00000  -5.52681  -0.00000   0.01645
 -0.35088   0.00000  -3.69239   0.00000  -5.56680   0.00000  -5.52681  -0.00000   0.01645
 -0.30075   0.00000  -3.69239   0.00000  -5.56680   0.00000  -5.52681  -0.00000   0.01645
 -0.25063   0.00000  -3.69239   0.00000  -5.56680   0.00000  -5.52681  -0.00000   0.01645
 -0.20050   0.00000  -3.69239   0.00000  -5.56680   0.00000  -5.52681  -0.00000   0.01645
 -0.15038   0.00000  -3.69239   0.00000  -5.56680   0.00000  -5.52681  -0.00000   0.01645
 -0.10025   0.00000  -3.69239   0.00000  -5.56680   0.00000  -5.52681  -0.00000   0.01645
 -0.05013   0.00000  -3.69239   0.00000  -5.56680   0.00000  -5.52681  -0.00000   0.01645
  0.00000  -0.00000  -3.69239  -0.00000  -5.56680  -0.00000  -5.52681  -0.00000   0.01645
  0.05013  -0.00000  -3.69239  -0.00000  -5.56680  -0.00000  -5.52681   0.00000   0.01645
  0.10025  -0.00000  -3.69239  -0.00000  -5.56680  -0.00000  -5.52681   0.00000   0.01645
  0.15038  -0.00000  -3.69239  -0.00000  -5.56680  -0.00000  -5.52681   0.00000   0.01645
  0.20050  -0.00000  -3.69239  -0.00000  -5.56680  -0.00000  -5.52681   0.00000   0.01645
  0.25063   0.00000  -3.69239   0.00000  -5.56680   0.00000  -5.52681   0.00000   0.01645
  0.30075   0.00000  -3.69239   0.00000  -5.56680   0.00000  -5.52681   0.00000   0.01645
  0.35088   0.00000  -3.69239   0.00000  -5.56680   0.00000  -5.52681   0.00000   0.01645
  0.40100   0.00000  -3.69239   0.00000  -5.56680   0.00000  -5.52681   0.00000   0.01645
  0.45113   0.00000  -3.69239   0.00000  -5.56680   0.00000  -5.52681   0.00000   0.01645
  0.50125   0.00000  -3.69239   0.00000  -5.56680   0.00000  -5.52681   0.00000   0.01645
  0.55138   0.00000  -3.69239   0.00000  -5.56680   0.00000  -5.52681   0.00000   0.01645
  0.60150   0.00000  -3.69239   0.00000  -5.56680   0.00000  -5.52681   0.00000   0.01645
  0.65163   0.00000  -3.69239   0.00000  -5.56680   0.00000  -5.52681   0.00000   0.01645
  0.70175   0.00000  -3.69239   0.00000  -5.56680   0.00000  -5.52681   0.00000   0.01645
  0.75188   0.00000  -3.69239   0.00000  -5.56680   0.00000  -5.52681   0.00000   0.01645
  0.80201   0.00000  -3.69239   0.00000  -5.56680   0.00000  -5.52681   0.00000   0.01645
  0.85213   0.00000  -3.69239   0.00000  -5.56680   0.00000  -5.52681   0.00000   0.01645
  0.90226   0.00000  -3.69239   0.00000  -5.56680   0.00000  -5.52681   0.00000   0.01645
  0.95238   0.00000  -3.69239   0.00000  -5.56680   0.00000  -5.52681   0.00000   0.01645
  1.00251   0.00000  -3.69239   0.00000  -5.56680   0.00000  -5.52681   0.00000   0.01645
  1.05263   0.00000  -3.69239   0.00000  -5.56680   0.00000  -5.52681   0.00000   0.01645
  1.10276   0.00000  -3.69239   0.00000  -5.56680   0.00000  -5.52681   0.00000   0.01645
  1.15288   0.00000  -3.69239   0.00000  -5.56680   0.00000  -5.52681   0.00000   0.01645
  1.20301   0.00000  -3.69239   0.00000  -5.56680   0.00000  -5.52681   0.00000   0.01645
  1.25313   0.00000  -3.69239   0.00000  -5.56680   0.00000  -5.52681   0.00000   0.01645
  1.30326   0.00000  -3.69239   0.00000  -5.56680   0.00000  -5.52681   0.00000   0.01645
  1.35338   0.00000  -3.69239   0.00000  -5.56680   0.00000  -5.52681   0.00000   0.01645
  1.40351   0.00000  -3.69239   0.00000  -5.56680   0.00000  -5.52681   0.00000   0.01645
  1.45363   0.00000  -3.69239   0.00000  -5.56680   0.00000  -5.52681   0.00000   0.01645
  1.50376   0.00000  -3.69239   0.00000  -5.56680   0.00000  -5.52681   0.00000   0.01645
  1.55388   0.00000  -3.69239   0.00000  -5.56680   0.00000  -5.52681   0.00000   0.01645
  1.60401   0.00000  -3.69239   0.00000  -5.56680   0.00000  -5.52681   0.00000   0.01645
  1.65414   0.00000  -3.69239   0.00000  -5.56680   0.00000  -5.52681   0.00000   0.01645
  1.70426   0.00000  -3.69239   0.00000  -5.56680   0.00000  -5.52681   0.00000   0.01645
  1.75439   0.00000  -3.69239   0.00000  -5.56680   0.00000  -5.52681   0.00000   0.01645
  1.80451   0.00000  -3.69239   0.00000  -5.56680   0.00000  -5.52681   0.00000   0.01645
  1.85464   0.00000  -3.69239   0.00000  -5.56680   0.00000  -5.52681   0.00000   0.01645
  1.90476   0.00000  -3.69239   0.00000  -5.56680   0.00000  -5.52681   0.00000   0.01645
  1.95489   0.00000  -3.69239   0.00000  -5.56680   0.00000  -5.52681   0.00000   0.01645
  2.00501   0.00000  -3.69239   0.00000  -5.56680   0.00000  -5.52681   0.00000   0.01645
  2.05514   0.00000  -3.69239   0.00000  -5.56680   0.00000  -5.52681   0.00000   0.01645
  2.10526   0.00000  -3.69239   0.00000  -5.56680   0.00000  -5.52681   0.00000   0.01645
  2.15539   0.00000  -3.69239   0.00000  -5.56680   0.00000  -5.52681   0.00000   0.01645
  2.20551   0.00000  -3.69239   0.00000  -5.56680   0.00000  -5.52681   0.00000   0.01645
  2.25564   0.00000  -3.69239   0.00000  -5.56680   0.00000  -5.52681   0.00000   0.01645
  2.30576   0.00000  -3.69239   0.00000  -5.56680   0.00000  -5.52681   0.00000   0.01645
  2.35589   0.00000  -3.69239   0.00000  -5.56680   0.00000  -5.52681   0.00000   0.01645
  2.40602   0.00000  -3.69239   0.00000  -5.56680   0.00000  -5.52681   0.00000   0.01645
  2.45614  -0.00000  -3.69239   0.00000  -5.56680  -0.00000  -5.52681  -0.00000   0.01645
  2.50627   0.00000  -3.69239   0.00000  -5.56680   0.00000  -5.52681  -0.00000   0.01645
  2.55639   0.00000  -3.69239   0.00000  -5.56680   0.00000  -5.52681  -0.00000   0.01645
  2.60652   0.00000  -3.69239   0.00000  -5.56680   0.00000  -5.52681  -0.00000   0.01645
  2.65664   0.00000  -3.69239   0.00000  -5.56680   0.00000  -5.52681  -0.00000   0.01645
  2.70677   0.00000  -3.69239   0.00000  -5.56680   0.00000  -5.52681  -0.00000   0.01645
  2.75689   0.00000  -3.69239   0.00000  -5.56680   0.00000  -5.52681  -0.00000   0.01645
  2.80702   0.00000  -3.69239   0.00000  -5.56680   0.00000  -5.52681  -0.00000   0.01645
  2.85714   0.00000  -3.69239   0.00000  -5.56680   0.00000  -5.52681  -0.00000   0.01645
  2.90727   0.00000  -3.69239   0.00000  -5.56680   0.00000  -5.52681  -0.00000   0.01645
  2.95739   0.00001  -3.69239   0.00002  -5.56680   0.00002  -5.52680  -0.00001   0.01645
  3.00752   0.00006  -3.69238   0.00010  -5.56680   0.00011  -5.52680  -0.00003   0.01645
  3.05764   0.00029  -3.69237   0.00050  -5.56677   0.00051  -5.52677  -0.00014   0.01644
  3.10777   0.00123  -3.69231   0.00211  -5.56667   0.00218  -5.52666  -0.00060   0.01641
  3.15789   0.00463  -3.69207   0.00796  -5.56627   0.00822  -5.52625  -0.00228   0.01630
  3.20802   0.01555  -3.69129   0.02673  -5.56493   0.02759  -5.52487  -0.00766   0.01591
  3.25815   0.04646  -3.68897   0.07983  -5.56093   0.08243  -5.52074  -0.02288   0.01477
  3.30827   0.12354  -3.68277   0.21225  -5.55029   0.21919  -5.50975  -0.06082   0.01172
  3.35840   0.29254  -3.66811   0.50258  -5.52510   0.51908  -5.48373  -0.14402   0.00450
  3.40852   0.61715  -3.63717   1.06017  -5.47195   1.09510  -5.42884  -0.30382  -0.01073
  3.45865   1.16029  -3.57901   1.99311  -5.37205   2.05895  -5.32563  -0.57119  -0.03936
  3.50877   1.94463  -3.48154   3.34033  -5.20461   3.45084  -5.15266  -0.95727  -0.08734
  3.55890   2.90597  -3.33588   4.99154  -4.95441   5.15681  -4.89417  -1.43045  -0.15905
  3.60902   3.87242  -3.14177   6.65157  -4.62100   6.87181  -4.54972  -1.90611  -0.25459
  3.65915   4.60185  -2.91110   7.90452  -4.22478   8.16610  -4.14039  -2.26508  -0.36813
  3.70927   4.87668  -2.66666   8.37669  -3.80490   8.65361  -3.70663  -2.40027  -0.48844
  3.75940   4.60796  -2.43568   7.91525  -3.40814   8.17657  -3.29677  -2.26794  -0.60212
  3.80952   3.88156  -2.24112   6.66762  -3.07393   6.88743  -2.95154  -1.91037  -0.69788
  3.85965   2.91413  -2.09504   5.00589  -2.82301   5.17069  -2.69236  -1.43419  -0.76977
  3.90977   1.94932  -1.99733   3.34860  -2.65516   3.45870  -2.51899  -0.95934  -0.81786
  3.95990   1.16139  -1.93912   1.99509  -2.55515   2.06063  -2.41570  -0.57155  -0.84651
  4.01003   0.61606  -1.90824   1.05831  -2.50210   1.09306  -2.36091  -0.30317  -0.86170
  4.06015   0.29083  -1.89366   0.49961  -2.47706   0.51602  -2.33504  -0.14312  -0.86888
  4.11028   0.12214  -1.88754   0.20981  -2.46654   0.21671  -2.32418  -0.06010  -0.87189
  4.16040   0.04561  -1.88525   0.07835  -2.46262   0.08092  -2.32013  -0.02244  -0.87302
  4.21053   0.01514  -1.88449   0.02600  -2.46131   0.02686  -2.31878  -0.00745  -0.87339
  4.26065   0.00446  -1.88427   0.00767  -2.46093   0.00792  -2.31838  -0.00220  -0.87350
  4.31078   0.00117  -1.88421   0.00201  -2.46083   0.00207  -2.31828  -0.00058  -0.87353
  4.36090   0.00027  -1.88420   0.00047  -2.46080   0.00048  -2.31825  -0.00013  -0.87353
  4.41103   0.00006  -1.88419   0.00010  -2.46080   0.00010  -2.31825  -0.00003  -0.87354
  4.46115   0.00001  -1.88419   0.00002  -2.46080   0.00002  -2.31825  -0.00000  -0.87354
  4.51128   0.00001  -1.88419   0.00001  -2.46080   0.00001  -2.31825   0.00000  -0.87354
  4.56140   0.00002  -1.88419   0.00003  -2.46080   0.00003  -2.31825   0.00001  -0.87354
  4.61153   0.00013  -1.88419   0.00016  -2.46079   0.00016  -2.31824   0.00006  -0.87353
  4.66165   0.00058  -1.88416   0.00075  -2.46075   0.00071  -2.31820   0.00027  -0.87352
  4.71178   0.00234  -1.88404   0.00303  -2.46060   0.00290  -2.31806   0.00109  -0.87346
  4.76190   0.00844  -1.88362   0.01095  -2.46005   0.01046  -2.31753   0.00392  -0.87327
  4.81203   0.02703  -1.88226   0.03509  -2.45829   0.03348  -2.31585   0.01254  -0.87264
  4.86216   0.07689  -1.87841   0.09985  -2.45329   0.09515  -2.31109   0.03566  -0.87085
  4.91228   0.19434  -1.86867   0.25255  -2.44063   0.24034  -2.29904   0.09014  -0.86633
  4.96241   0.43685  -1.84677   0.56807  -2.41215   0.53987  -2.27198   0.20261  -0.85618
  5.01253   0.87380  -1.80297   1.13706  -2.35516   1.07909  -2.21789   0.40525  -0.83587
  5.06266   1.55629  -1.72496   2.02660  -2.25357   1.92052  -2.12162   0.72174  -0.79969
  5.11278   2.46969  -1.60117   3.21835  -2.09225   3.04544  -1.96897   1.14527  -0.74228
  5.16291   3.49409  -1.42602   4.55654  -1.86385   4.30552  -1.75315   1.62022  -0.66107
  5.21303   4.40971  -1.20499   5.75457  -1.57541   5.42991  -1.48098   2.04466  -0.55858
  5.26316   4.96681  -0.95602   6.48587  -1.25030   6.11175  -1.17462   2.30280  -0.44315
  5.31328   4.99458  -0.70567   6.52618  -0.92317   6.14207  -0.86675   2.31550  -0.32708
  5.36341   4.48521  -0.48085   5.86390  -0.62924   5.51254  -0.59043   2.07919  -0.22286
  5.41353   3.59728  -0.30053   4.70535  -0.39339   4.41904  -0.36892   1.66744  -0.13928
  5.46366   2.57662  -0.17138   3.37170  -0.22438   3.16391  -0.21033   1.19424  -0.07942
  5.51378   1.64787  -0.08878   2.15709  -0.11625   2.02280  -0.10894   0.76372  -0.04114
  5.56391   0.94069  -0.04163   1.23169  -0.05451   1.15443  -0.05107   0.43594  -0.01929
  5.61404   0.47908  -0.01761   0.62740  -0.02307   0.58785  -0.02161   0.22200  -0.00816
  5.66416   0.21756  -0.00671   0.28494  -0.00878   0.26693  -0.00823   0.10081  -0.00311
  5.71429   0.08804  -0.00229   0.11531  -0.00300   0.10801  -0.00281   0.04079  -0.00106
  5.76441   0.03172  -0.00070   0.04155  -0.00092   0.03892  -0.00086   0.01470  -0.00033
  5.81454   0.01017  -0.00019   0.01332  -0.00025   0.01248  -0.00024   0.00471  -0.00009
  5.86466   0.00290  -0.00005   0.00380  -0.00006   0.00356  -0.00006   0.00134  -0.00002
  5.91479   0.00074  -0.00001   0.00096  -0.00001   0.00090  -0.00001   0.00034  -0.00000
  5.96491   0.00017  -0.00000   0.00022  -0.00000   0.00020  -0.00000   0.00008  -0.00000
  6.01504   0.00003  -0.00000   0.00004  -0.00000   0.00004  -0.00000   0.00002  -0.00000
  6.06516   0.00001  -0.00000   0.00001  -0.00000   0.00001  -0.00000   0.00000  -0.00000
  6.11529   0.00000  -0.00000   0.00000  -0.00000   0.00000  -0.00000   0.00000  -0.00000
  6.16541   0.00000  -0.00000   0.00000  -0.00000   0.00000  -0.00000   0.00000  -0.00000
  6.21554   0.00000  -0.00000   0.00000  -0.00000   0.00000  -0.00000   0.00000  -0.00000
  6.26566   0.00000  -0.00000   0.00000  -0.00000   0.00000  -0.00000   0.00000  -0.00000
  6.31579   0.00000  -0.00000   0.00000  -0.00000   0.00000  -0.00000   0.00000  -0.00000
  6.36591   0.00000  -0.00000   0.00000  -0.00000   0.00000  -0.00000   0.00000  -0.00000
  6.41604   0.00000  -0.00000   0.00000  -0.00000   0.00000  -0.00000   0.00000  -0.00000
  6.46617   0.00000  -0.00000   0.00000  -0.00000   0.00000  -0.00000   0.00000  -0.00000