ESCALE ; pCOOP file generated by LOBSTER. Energy is shifted such that the Fermi level lies at 0 eV.
         4          1        401  -1.57367e+01   4.31347e+00  -5.71160e+00 
Average
No.1:H2->O1(1.2151131634543459)
No.2:H3->O1(1.2200000000000273)
No.3:H3->H2(1.9163767896737218)
-10.02506   0.00000   0.05210   0.00000   0.07636   0.00000   0.07500   0.00000   0.00494
 -9.97494   0.00000   0.05210   0.00000   0.07636   0.00000   0.07500   0.00000   0.00494
 -9.92481   0.00000   0.05210   0.00000   0.07636   0.00000   0.07500   0.00000   0.00494
 -9.87469   0.00000   0.05210   0.00000   0.07636   0.00000   0.07500   0.00000   0.00494
 -9.82456   0.00000   0.05210   0.00000   0.07636   0.00000   0.07500   0.00000   0.00494
 -9.77444   0.00000   0.05210   0.00000   0.07636   0.00000   0.07500   0.00000   0.00494
 -9.72431   0.00000   0.05210   0.00000   0.07636   0.00000   0.07500   0.00000   0.00494
 -9.67419   0.00000   0.05210   0.00000   0.07636   0.00000   0.07500   0.00000   0.00494
 -9.62406   0.00000   0.05210   0.00000   0.07636   0.00000   0.07500   0.00000   0.00494
 -9.57393   0.00000   0.05210   0.00000   0.07636   0.00000   0.07500   0.00000   0.00494
 -9.52381   0.00000   0.05210   0.00000   0.07636   0.00000   0.07500   0.00000   0.00494
 -9.47368   0.00000   0.05210   0.00000   0.07636   0.00000   0.07500   0.00000   0.00494
 -9.42356   0.00000   0.05210   0.00000   0.07636   0.00000   0.07500   0.00000   0.00494
 -9.37343   0.00000   0.05210   0.00000   0.07636   0.00000   0.07500   0.00000   0.00494
 -9.32331   0.00000   0.05210   0.00000   0.07636   0.00000   0.07500   0.00000   0.00494
 -9.27318   0.00000   0.05210   0.00000   0.07636   0.00000   0.07500   0.00000   0.00494
 -9.22306   0.00000   0.05210   0.00000   0.07636   0.00000   0.07500   0.00000   0.00494
 -9.17293   0.00000   0.05210   0.00000   0.07636   0.00000   0.07500   0.00000   0.00494
 -9.12281   0.00000   0.05210   0.00000   0.07636   0.00000   0.07500   0.00000   0.00494
 -9.07268   0.00000   0.05210   0.00000   0.07636   0.00000   0.07500   0.00000   0.00494
 -9.02256   0.00000   0.05210   0.00000   0.07636   0.00000   0.07500   0.00000   0.00494
 -8.97243   0.00000   0.05210   0.00000   0.07636   0.00000   0.07500   0.00000   0.00494
 -8.92231   0.00000   0.05210   0.00000   0.07636   0.00000   0.07500   0.00000   0.00494
 -8.87218   0.00000   0.05210   0.00000   0.07636   0.00000   0.07500   0.00000   0.00494
 -8.82206   0.00000   0.05210   0.00000   0.07636   0.00000   0.07500   0.00000   0.00494
 -8.77193   0.00000   0.05210   0.00000   0.07636   0.00000   0.07500   0.00000   0.00494
 -8.72180   0.00000   0.05210   0.00000   0.07636   0.00000   0.07500   0.00000   0.00494
 -8.67168   0.00000   0.05210   0.00000   0.07636   0.00000   0.07500   0.00000   0.00494
 -8.62155   0.00000   0.05210   0.00000   0.07636   0.00000   0.07500   0.00000   0.00494
 -8.57143   0.00000   0.05210   0.00000   0.07636   0.00000   0.07500   0.00000   0.00494
 -8.52130   0.00000   0.05210   0.00000   0.07636   0.00000   0.07500   0.00000   0.00494
 -8.47118   0.00000   0.05210   0.00000   0.07636   0.00000   0.07500   0.00000   0.00494
 -8.42105   0.00000   0.05210   0.00000   0.07636   0.00000   0.07500   0.00000   0.00494
 -8.37093   0.00000   0.05210   0.00000   0.07636   0.00000   0.07500   0.00000   0.00494
 -8.32080   0.00000   0.05210   0.00000   0.07636   0.00000   0.07500   0.00000   0.00494
 -8.27068   0.00000   0.05210   0.00000   0.07636   0.00000   0.07500   0.00000   0.00494
 -8.22055   0.00000   0.05210   0.00000   0.07636   0.00000   0.07500   0.00000   0.00494
 -8.17043   0.00000   0.05210   0.00000   0.07636   0.00000   0.07500   0.00000   0.00494
 -8.12030   0.00000   0.05210   0.00000   0.07636   0.00000   0.07500   0.00000   0.00494
 -8.07018   0.00000   0.05210   0.00000   0.07636   0.00000   0.07500   0.00000   0.00494
 -8.02005   0.00000   0.05210   0.00000   0.07636   0.00000   0.07500   0.00000   0.00494
 -7.96992   0.00000   0.05210   0.00000   0.07636   0.00000   0.07500   0.00000   0.00494
 -7.91980   0.00000   0.05210   0.00000   0.07636   0.00000   0.07500   0.00000   0.00494
 -7.86967   0.00000   0.05210   0.00000   0.07636   0.00000   0.07500   0.00000   0.00494
 -7.81955   0.00000   0.05210   0.00000   0.07636   0.00000   0.07500   0.00000   0.00494
 -7.76942   0.00000   0.05210   0.00000   0.07636   0.00000   0.07500   0.00000   0.00494
 -7.71930   0.00000   0.05210   0.00000   0.07636   0.00000   0.07500   0.00000   0.00494
 -7.66917   0.00000   0.05210   0.00000   0.07636   0.00000   0.07500   0.00000   0.00494
 -7.61905   0.00000   0.05210   0.00000   0.07636   0.00000   0.07500   0.00000   0.00494
 -7.56892   0.00000   0.05210   0.00000   0.07636   0.00000   0.07500   0.00000   0.00494
 -7.51880   0.00000   0.05210   0.00000   0.07636   0.00000   0.07500   0.00000   0.00494
 -7.46867   0.00000   0.05210   0.00000   0.07636   0.00000   0.07500   0.00000   0.00494
 -7.41855   0.00000   0.05210   0.00000   0.07636   0.00000   0.07500   0.00000   0.00494
 -7.36842   0.00000   0.05210   0.00000   0.07636   0.00000   0.07500   0.00000   0.00494
 -7.31830   0.00000   0.05210   0.00000   0.07636   0.00000   0.07500   0.00000   0.00494
 -7.26817   0.00000   0.05210   0.00000   0.07636   0.00000   0.07500   0.00000   0.00494
 -7.21805   0.00000   0.05210   0.00000   0.07636   0.00000   0.07500   0.00000   0.00494
 -7.16792   0.00000   0.05210   0.00000   0.07636   0.00000   0.07500   0.00000   0.00494
 -7.11779   0.00000   0.05210   0.00000   0.07636   0.00000   0.07500   0.00000   0.00494
 -7.06767   0.00000   0.05210   0.00000   0.07636   0.00000   0.07500   0.00000   0.00494
 -7.01754   0.00000   0.05210   0.00000   0.07636   0.00000   0.07500   0.00000   0.00494
 -6.96742   0.00000   0.05210   0.00000   0.07636   0.00000   0.07500   0.00000   0.00494
 -6.91729   0.00000   0.05210   0.00000   0.07636   0.00000   0.07500   0.00000   0.00494
 -6.86717   0.00000   0.05210   0.00000   0.07636   0.00000   0.07500   0.00000   0.00494
 -6.81704   0.00000   0.05210   0.00000   0.07636   0.00000   0.07500   0.00000   0.00494
 -6.76692   0.00000   0.05210   0.00000   0.07636   0.00000   0.07500   0.00000   0.00494
 -6.71679   0.00000   0.05210   0.00000   0.07636   0.00000   0.07500   0.00000   0.00494
 -6.66667   0.00000   0.05210   0.00000   0.07636   0.00000   0.07500   0.00000   0.00494
 -6.61654   0.00000   0.05210   0.00000   0.07636   0.00000   0.07500   0.00000   0.00494
 -6.56642   0.00000   0.05210   0.00000   0.07636   0.00000   0.07500   0.00000   0.00494
 -6.51629   0.00000   0.05210   0.00000   0.07636   0.00000   0.07500  -0.00000   0.00494
 -6.46617   0.00000   0.05210   0.00000   0.07636   0.00000   0.07500  -0.00000   0.00494
 -6.41604   0.00000   0.05210   0.00000   0.07636   0.00000   0.07500  -0.00000   0.00494
 -6.36591   0.00000   0.05210   0.00000   0.07636   0.00000   0.07500  -0.00000   0.00494
 -6.31579   0.00000   0.05210   0.00000   0.07636   0.00000   0.07500  -0.00000   0.00494
 -6.26566   0.00000   0.05210   0.00000   0.07636   0.00000   0.07500  -0.00000   0.00494
 -6.21554   0.00000   0.05210   0.00000   0.07636   0.00000   0.07500  -0.00000   0.00494
 -6.16541   0.00000   0.05210   0.00000   0.07636   0.00000   0.07500  -0.00000   0.00494
 -6.11529   0.00000   0.05210   0.00000   0.07636   0.00000   0.07500  -0.00000   0.00494
 -6.06516   0.00000   0.05210   0.00000   0.07636   0.00000   0.07500  -0.00000   0.00494
 -6.01504   0.00000   0.05210   0.00001   0.07636   0.00001   0.07500  -0.00000   0.00494
 -5.96491   0.00001   0.05210   0.00003   0.07636   0.00003   0.07500  -0.00001   0.00494
 -5.91479   0.00006   0.05210   0.00012   0.07636   0.00012   0.07501  -0.00005   0.00493
 -5.86466   0.00024   0.05212   0.00046   0.07639   0.00046   0.07503  -0.00020   0.00492
 -5.81454   0.00084   0.05216   0.00159   0.07647   0.00160   0.07511  -0.00068   0.00489
 -5.76441   0.00254   0.05228   0.00484   0.07671   0.00485   0.07536  -0.00205   0.00479
 -5.71429   0.00683   0.05263   0.01298   0.07736   0.01302   0.07601  -0.00551   0.00451
 -5.66416   0.01619   0.05344   0.03078   0.07890   0.03087   0.07756  -0.01307   0.00386
 -5.61404   0.03390   0.05514   0.06442   0.08213   0.06462   0.08080  -0.02736   0.00249
 -5.56391   0.06266   0.05828   0.11909   0.08810   0.11946   0.08678  -0.05057  -0.00005
 -5.51378   0.10228   0.06341   0.19440   0.09785   0.19500   0.09656  -0.08254  -0.00419
 -5.46366   0.14744   0.07080   0.28023   0.11189   0.28109   0.11065  -0.11899  -0.01015
 -5.41353   0.18770   0.08021   0.35673   0.12977   0.35784   0.12859  -0.15147  -0.01774
 -5.36341   0.21101   0.09078   0.40103   0.14988   0.40227   0.14875  -0.17028  -0.02628
 -5.31328   0.20948   0.10128   0.39813   0.16983   0.39937   0.16877  -0.16905  -0.03475
 -5.26316   0.18366   0.11049   0.34905   0.18733   0.35013   0.18632  -0.14821  -0.04218
 -5.21303   0.14219   0.11762   0.27024   0.20087   0.27108   0.19991  -0.11475  -0.04793
 -5.16291   0.09722   0.12249   0.18477   0.21014   0.18534   0.20920  -0.07846  -0.05187
 -5.11278   0.05870   0.12543   0.11156   0.21573   0.11190   0.21481  -0.04737  -0.05424
 -5.06266   0.03130   0.12700   0.05948   0.21871   0.05967   0.21780  -0.02526  -0.05551
 -5.01253   0.01474   0.12774   0.02801   0.22011   0.02809   0.21920  -0.01189  -0.05610
 -4.96241   0.00613   0.12805   0.01164   0.22070   0.01168   0.21979  -0.00494  -0.05635
 -4.91228   0.00225   0.12816   0.00428   0.22091   0.00429   0.22001  -0.00182  -0.05644
 -4.86216   0.00073   0.12819   0.00139   0.22098   0.00139   0.22007  -0.00059  -0.05647
 -4.81203   0.00021   0.12821   0.00040   0.22100   0.00040   0.22009  -0.00017  -0.05648
 -4.76190   0.00005   0.12821   0.00010   0.22101   0.00010   0.22010  -0.00004  -0.05648
 -4.71178   0.00001   0.12821   0.00002   0.22101   0.00002   0.22010  -0.00001  -0.05648
 -4.66165   0.00000   0.12821   0.00000   0.22101   0.00000   0.22010  -0.00000  -0.05648
 -4.61153   0.00000   0.12821   0.00000   0.22101   0.00000   0.22010  -0.00000  -0.05648
 -4.56140   0.00000   0.12821   0.00000   0.22101   0.00000   0.22010  -0.00000  -0.05648
 -4.51128   0.00000   0.12821   0.00000   0.22101   0.00000   0.22010  -0.00000  -0.05648
 -4.46115   0.00000   0.12821   0.00000   0.22101   0.00000   0.22010  -0.00000  -0.05648
 -4.41103   0.00000   0.12821   0.00000   0.22101   0.00000   0.22010  -0.00000  -0.05648
 -4.36090   0.00000   0.12821   0.00000   0.22101   0.00000   0.22010  -0.00000  -0.05648
 -4.31078   0.00000   0.12821   0.00000   0.22101   0.00000   0.22010  -0.00000  -0.05648
 -4.26065   0.00000   0.12821   0.00000   0.22101   0.00000   0.22010  -0.00000  -0.05648
 -4.21053   0.00000   0.12821   0.00000   0.22101   0.00000   0.22010   0.00000  -0.05648
 -4.16040   0.00000   0.12821   0.00000   0.22101   0.00000   0.22010   0.00000  -0.05648
 -4.11028   0.00000   0.12821   0.00000   0.22101   0.00000   0.22010   0.00000  -0.05648
 -4.06015   0.00000   0.12821   0.00000   0.22101   0.00000   0.22010   0.00000  -0.05648
 -4.01003   0.00000   0.12821   0.00000   0.22101   0.00000   0.22010   0.00000  -0.05648
 -3.95990   0.00000   0.12821   0.00000   0.22101   0.00000   0.22010   0.00000  -0.05648
 -3.90977   0.00000   0.12821   0.00000   0.22101   0.00000   0.22010   0.00000  -0.05648
 -3.85965   0.00000   0.12821   0.00000   0.22101   0.00000   0.22010   0.00000  -0.05648
 -3.80952   0.00000   0.12821   0.00000   0.22101   0.00000   0.22010   0.00000  -0.05648
 -3.75940   0.00001   0.12821   0.00000   0.22101   0.00000   0.22010   0.00001  -0.05648
 -3.70927   0.00003   0.12821   0.00002   0.22101   0.00002   0.22010   0.00004  -0.05648
 -3.65915   0.00010   0.12822   0.00007   0.22101   0.00007   0.22011   0.00016  -0.05647
 -3.60902   0.00032   0.12823   0.00022   0.22102   0.00023   0.22012   0.00052  -0.05645
 -3.55890   0.00093   0.12828   0.00063   0.22105   0.00066   0.22015   0.00151  -0.05637
 -3.50877   0.00238   0.12840   0.00160   0.22113   0.00168   0.22023   0.00385  -0.05618
 -3.45865   0.00537   0.12867   0.00362   0.22132   0.00379   0.22042   0.00869  -0.05574
 -3.40852   0.01069   0.12920   0.00721   0.22168   0.00754   0.22080   0.01731  -0.05487
 -3.35840   0.01880   0.13014   0.01268   0.22231   0.01327   0.22147   0.03046  -0.05335
 -3.30827   0.02921   0.13161   0.01969   0.22330   0.02061   0.22250   0.04731  -0.05098
 -3.25815   0.04007   0.13362   0.02701   0.22465   0.02828   0.22392   0.06491  -0.04772
 -3.20802   0.04854   0.13605   0.03273   0.22629   0.03426   0.22564   0.07863  -0.04378
 -3.15789   0.05193   0.13865   0.03501   0.22805   0.03665   0.22747   0.08412  -0.03956
 -3.10777   0.04906   0.14111   0.03308   0.22971   0.03463   0.22921   0.07948  -0.03558
 -3.05764   0.04093   0.14316   0.02760   0.23109   0.02889   0.23066   0.06631  -0.03226
 -3.00752   0.03016   0.14468   0.02034   0.23211   0.02129   0.23172   0.04886  -0.02981
 -2.95739   0.01962   0.14566   0.01323   0.23277   0.01385   0.23242   0.03179  -0.02821
 -2.90727   0.01128   0.14622   0.00760   0.23315   0.00796   0.23282   0.01827  -0.02730
 -2.85714   0.00572   0.14651   0.00386   0.23335   0.00404   0.23302   0.00927  -0.02683
 -2.80702   0.00256   0.14664   0.00173   0.23343   0.00181   0.23311   0.00415  -0.02662
 -2.75689   0.00101   0.14669   0.00068   0.23347   0.00072   0.23315   0.00164  -0.02654
 -2.70677   0.00035   0.14671   0.00024   0.23348   0.00025   0.23316   0.00057  -0.02651
 -2.65664   0.00011   0.14671   0.00007   0.23348   0.00008   0.23316   0.00018  -0.02650
 -2.60652   0.00003   0.14672   0.00002   0.23349   0.00002   0.23316   0.00005  -0.02650
 -2.55639   0.00001   0.14672   0.00000   0.23349   0.00001   0.23316   0.00001  -0.02650
 -2.50627   0.00000   0.14672   0.00000   0.23349   0.00000   0.23316   0.00000  -0.02650
 -2.45614   0.00000   0.14672   0.00000   0.23349   0.00000   0.23316   0.00000  -0.02650
 -2.40602   0.00000   0.14672   0.00000   0.23349   0.00000   0.23316   0.00000  -0.02650
 -2.35589   0.00000   0.14672   0.00000   0.23349   0.00000   0.23316   0.00000  -0.02650
 -2.30576   0.00000   0.14672   0.00000   0.23349   0.00000   0.23316   0.00000  -0.02650
 -2.25564   0.00000   0.14672   0.00000   0.23349   0.00000   0.23316   0.00000  -0.02650
 -2.20551   0.00000   0.14672   0.00000   0.23349   0.00000   0.23316   0.00000  -0.02650
 -2.15539   0.00000   0.14672   0.00000   0.23349   0.00000   0.23316   0.00000  -0.02650
 -2.10526   0.00000   0.14672   0.00000   0.23349   0.00000   0.23316   0.00000  -0.02650
 -2.05514   0.00000   0.14672   0.00000   0.23349   0.00000   0.23316   0.00000  -0.02650
 -2.00501   0.00000   0.14672   0.00000   0.23349   0.00000   0.23316   0.00000  -0.02650
 -1.95489   0.00000   0.14672   0.00000   0.23349   0.00000   0.23316   0.00000  -0.02650
 -1.90476  -0.00000   0.14672  -0.00000   0.23349  -0.00000   0.23316   0.00000  -0.02650
 -1.85464  -0.00000   0.14672  -0.00000   0.23349  -0.00000   0.23316   0.00000  -0.02650
 -1.80451  -0.00000   0.14672  -0.00000   0.23349  -0.00000   0.23316   0.00000  -0.02650
 -1.75439  -0.00000   0.14672  -0.00000   0.23349  -0.00000   0.23316   0.00000  -0.02650
 -1.70426  -0.00000   0.14672  -0.00000   0.23349  -0.00000   0.23316   0.00000  -0.02650
 -1.65414  -0.00000   0.14672  -0.00000   0.23349  -0.00000   0.23316   0.00000  -0.02650
 -1.60401  -0.00000   0.14672  -0.00000   0.23349  -0.00000   0.23316   0.00000  -0.02650
 -1.55388  -0.00000   0.14672  -0.00000   0.23349  -0.00000   0.23316   0.00000  -0.02650
 -1.50376  -0.00000   0.14672  -0.00000   0.23349  -0.00000   0.23316   0.00000  -0.02650
 -1.45363  -0.00000   0.14672  -0.00000   0.23349  -0.00000   0.23316   0.00000  -0.02650
 -1.40351  -0.00000   0.14672  -0.00000   0.23349  -0.00000   0.23316   0.00000  -0.02650
 -1.35338  -0.00000   0.14672  -0.00000   0.23349  -0.00000   0.23316   0.00000  -0.02650
 -1.30326  -0.00000   0.14672  -0.00000   0.23349  -0.00000   0.23316   0.00000  -0.02650
 -1.25313  -0.00000   0.14672  -0.00000   0.23349  -0.00000   0.23316   0.00000  -0.02650
 -1.20301  -0.00000   0.14672  -0.00000   0.23349  -0.00000   0.23316   0.00000  -0.02650
 -1.15288  -0.00000   0.14672  -0.00000   0.23349  -0.00000   0.23316   0.00000  -0.02650
 -1.10276  -0.00000   0.14672  -0.00000   0.23349  -0.00000   0.23316   0.00000  -0.02650
 -1.05263  -0.00000   0.14672  -0.00000   0.23349  -0.00000   0.23316   0.00000  -0.02650
 -1.00251  -0.00000   0.14672  -0.00000   0.23349  -0.00000   0.23316   0.00000  -0.02650
 -0.95238  -0.00000   0.14672  -0.00000   0.23349  -0.00000   0.23316   0.00000  -0.02650
 -0.90226  -0.00000   0.14672  -0.00000   0.23349  -0.00000   0.23316   0.00000  -0.02650
 -0.85213  -0.00000   0.14672  -0.00000   0.23349  -0.00000   0.23316   0.00000  -0.02650
 -0.80201  -0.00000   0.14672  -0.00000   0.23349  -0.00000   0.23316   0.00000  -0.02650
 -0.75188  -0.00000   0.14672  -0.00000   0.23349  -0.00000   0.23316   0.00000  -0.02650
 -0.70175  -0.00000   0.14672  -0.00000   0.23349  -0.00000   0.23316   0.00000  -0.02650
 -0.65163  -0.00000   0.14672  -0.00000   0.23349  -0.00000   0.23316   0.00000  -0.02650
 -0.60150  -0.00000   0.14672  -0.00000   0.23349  -0.00000   0.23316   0.00000  -0.02650
 -0.55138  -0.00000   0.14672  -0.00000   0.23349  -0.00000   0.23316   0.00000  -0.02650
 -0.50125  -0.00000   0.14672  -0.00000   0.23349  -0.00000   0.23316   0.00000  -0.02650
 -0.45113  -0.00000   0.14672  -0.00000   0.23349  -0.00000   0.23316   0.00000  -0.02650
 -0.40100  -0.00000   0.14672  -0.00000   0.23349  -0.00000   0.23316   0.00000  -0.02650
 -0.35088  -0.00000   0.14672  -0.00000   0.23349  -0.00000   0.23316   0.00000  -0.02650
 -0.30075  -0.00000   0.14672  -0.00000   0.23349  -0.00000   0.23316   0.00000  -0.02650
 -0.25063  -0.00000   0.14672  -0.00000   0.23349  -0.00000   0.23316   0.00000  -0.02650
 -0.20050  -0.00000   0.14672  -0.00000   0.23349  -0.00000   0.23316   0.00000  -0.02650
 -0.15038  -0.00000   0.14672  -0.00000   0.23349  -0.00000   0.23316   0.00000  -0.02650
 -0.10025  -0.00000   0.14672  -0.00000   0.23349  -0.00000   0.23316   0.00000  -0.02650
 -0.05013  -0.00000   0.14672  -0.00000   0.23349  -0.00000   0.23316   0.00000  -0.02650
  0.00000  -0.00000   0.14672  -0.00000   0.23349  -0.00000   0.23316   0.00000  -0.02650
  0.05013   0.00000   0.14672   0.00000   0.23349   0.00000   0.23316   0.00000  -0.02650
  0.10025   0.00000   0.14672   0.00000   0.23349   0.00000   0.23316   0.00000  -0.02650
  0.15038   0.00000   0.14672   0.00000   0.23349   0.00000   0.23316   0.00000  -0.02650
  0.20050   0.00000   0.14672   0.00000   0.23349   0.00000   0.23316   0.00000  -0.02650
  0.25063   0.00000   0.14672   0.00000   0.23349   0.00000   0.23316   0.00000  -0.02650
  0.30075   0.00000   0.14672   0.00000   0.23349   0.00000   0.23316   0.00000  -0.02650
  0.35088   0.00000   0.14672   0.00000   0.23349   0.00000   0.23316   0.00000  -0.02650
  0.40100   0.00000   0.14672   0.00000   0.23349   0.00000   0.23316   0.00000  -0.02650
  0.45113   0.00000   0.14672   0.00000   0.23349   0.00000   0.23316   0.00000  -0.02650
  0.50125   0.00000   0.14672   0.00000   0.23349   0.00000   0.23316   0.00000  -0.02650
  0.55138   0.00000   0.14672   0.00000   0.23349   0.00000   0.23316   0.00000  -0.02650
  0.60150   0.00000   0.14672   0.00000   0.23349   0.00000   0.23316   0.00000  -0.02650
  0.65163   0.00000   0.14672   0.00000   0.23349   0.00000   0.23316   0.00000  -0.02650
  0.70175   0.00000   0.14672   0.00000   0.23349   0.00000   0.23316   0.00000  -0.02650
  0.75188   0.00000   0.14672   0.00000   0.23349   0.00000   0.23316   0.00000  -0.02650
  0.80201   0.00000   0.14672   0.00000   0.23349   0.00000   0.23316   0.00000  -0.02650
  0.85213   0.00000   0.14672   0.00000   0.23349   0.00000   0.23316   0.00000  -0.02650
  0.90226   0.00000   0.14672   0.00000   0.23349   0.00000   0.23316   0.00000  -0.02650
  0.95238   0.00000   0.14672   0.00000   0.23349   0.00000   0.23316   0.00000  -0.02650
  1.00251   0.00000   0.14672   0.00000   0.23349   0.00000   0.23316   0.00000  -0.02650
  1.05263   0.00000   0.14672   0.00000   0.23349   0.00000   0.23316   0.00000  -0.02650
  1.10276   0.00000   0.14672   0.00000   0.23349   0.00000   0.23316   0.00000  -0.02650
  1.15288   0.00000   0.14672   0.00000   0.23349   0.00000   0.23316   0.00000  -0.02650
  1.20301   0.00000   0.14672   0.00000   0.23349   0.00000   0.23316   0.00000  -0.02650
  1.25313   0.00000   0.14672   0.00000   0.23349   0.00000   0.23316   0.00000  -0.02650
  1.30326   0.00000   0.14672   0.00000   0.23349   0.00000   0.23316   0.00000  -0.02650
  1.35338   0.00000   0.14672   0.00000   0.23349   0.00000   0.23316   0.00000  -0.02650
  1.40351   0.00000   0.14672   0.00000   0.23349   0.00000   0.23316   0.00000  -0.02650
  1.45363   0.00000   0.14672   0.00000   0.23349   0.00000   0.23316   0.00000  -0.02650
  1.50376   0.00000   0.14672   0.00000   0.23349   0.00000   0.23316   0.00000  -0.02650
  1.55388   0.00000   0.14672   0.00000   0.23349   0.00000   0.23316   0.00000  -0.02650
  1.60401   0.00000   0.14672   0.00000   0.23349   0.00000   0.23316   0.00000  -0.02650
  1.65414   0.00000   0.14672   0.00000   0.23349   0.00000   0.23316   0.00000  -0.02650
  1.70426   0.00000   0.14672   0.00000   0.23349   0.00000   0.23316   0.00000  -0.02650
  1.75439   0.00000   0.14672   0.00000   0.23349   0.00000   0.23316   0.00000  -0.02650
  1.80451   0.00000   0.14672   0.00000   0.23349   0.00000   0.23316   0.00000  -0.02650
  1.85464   0.00000   0.14672   0.00000   0.23349   0.00000   0.23316   0.00000  -0.02650
  1.90476   0.00000   0.14672   0.00000   0.23349   0.00000   0.23316   0.00000  -0.02650
  1.95489   0.00000   0.14672   0.00000   0.23349   0.00000   0.23316   0.00000  -0.02650
  2.00501   0.00000   0.14672   0.00000   0.23349   0.00000   0.23316   0.00000  -0.02650
  2.05514   0.00000   0.14672   0.00000   0.23349   0.00000   0.23316   0.00000  -0.02650
  2.10526   0.00000   0.14672   0.00000   0.23349   0.00000   0.23316   0.00000  -0.02650
  2.15539   0.00000   0.14672   0.00000   0.23349   0.00000   0.23316   0.00000  -0.02650
  2.20551   0.00000   0.14672   0.00000   0.23349   0.00000   0.23316   0.00000  -0.02650
  2.25564   0.00000   0.14672   0.00000   0.23349   0.00000   0.23316   0.00000  -0.02650
  2.30576   0.00000   0.14672   0.00000   0.23349   0.00000   0.23316   0.00000  -0.02650
  2.35589   0.00000   0.14672   0.00000   0.23349   0.00000   0.23316   0.00000  -0.02650
  2.40602   0.00000   0.14672   0.00000   0.23349   0.00000   0.23316   0.00000  -0.02650
  2.45614  -0.00000   0.14672  -0.00000   0.23349  -0.00000   0.23316   0.00000  -0.02650
  2.50627  -0.00000   0.14672  -0.00000   0.23349  -0.00000   0.23316   0.00000  -0.02650
  2.55639  -0.00000   0.14672  -0.00000   0.23349  -0.00000   0.23316   0.00000  -0.02650
  2.60652  -0.00000   0.14672  -0.00000   0.23349  -0.00000   0.23316   0.00000  -0.02650
  2.65664  -0.00000   0.14672  -0.00000   0.23349  -0.00000   0.23316   0.00000  -0.02650
  2.70677  -0.00000   0.14672  -0.00000   0.23349  -0.00000   0.23316   0.00000  -0.02650
  2.75689  -0.00000   0.14672  -0.00000   0.23349  -0.00000   0.23316   0.00000  -0.02650
  2.80702  -0.00000   0.14672  -0.00000   0.23349  -0.00000   0.23316   0.00000  -0.02650
  2.85714  -0.00000   0.14672  -0.00000   0.23349  -0.00000   0.23316   0.00000  -0.02650
  2.90727  -0.00000   0.14672  -0.00000   0.23349  -0.00000   0.23316   0.00000  -0.02650
  2.95739  -0.00000   0.14672  -0.00000   0.23349  -0.00000   0.23316   0.00000  -0.02650
  3.00752  -0.00001   0.14671  -0.00002   0.23348  -0.00002   0.23316   0.00001  -0.02650
  3.05764  -0.00005   0.14671  -0.00009   0.23348  -0.00009   0.23316   0.00004  -0.02650
  3.10777  -0.00019   0.14670  -0.00037   0.23346  -0.00038   0.23314   0.00017  -0.02649
  3.15789  -0.00073   0.14667  -0.00139   0.23339  -0.00143   0.23307   0.00064  -0.02646
  3.20802  -0.00245   0.14654  -0.00467   0.23316  -0.00481   0.23283   0.00213  -0.02635
  3.25815  -0.00732   0.14618  -0.01394   0.23246  -0.01438   0.23210   0.00637  -0.02603
  3.30827  -0.01946   0.14520  -0.03707   0.23060  -0.03823   0.23019   0.01694  -0.02518
  3.35840  -0.04607   0.14289  -0.08777   0.22620  -0.09054   0.22565   0.04011  -0.02317
  3.40852  -0.09719   0.13802  -0.18516   0.21692  -0.19102   0.21607   0.08461  -0.01893
  3.45865  -0.18273   0.12886  -0.34810   0.19947  -0.35915   0.19807   0.15907  -0.01096
  3.50877  -0.30625   0.11351  -0.58341   0.17023  -0.60195   0.16790   0.26661   0.00241
  3.55890  -0.45765   0.09057  -0.87182   0.12653  -0.89956   0.12281   0.39842   0.02238
  3.60902  -0.60986   0.06000  -1.16178   0.06829  -1.19875   0.06272   0.53094   0.04899
  3.65915  -0.72475   0.02367  -1.38065  -0.00091  -1.42456  -0.00869   0.63096   0.08062
  3.70927  -0.76804  -0.01483  -1.46315  -0.07425  -1.50963  -0.08436   0.66866   0.11413
  3.75940  -0.72573  -0.05120  -1.38258  -0.14356  -1.42644  -0.15586   0.63183   0.14580
  3.80952  -0.61133  -0.08185  -1.16467  -0.20194  -1.20157  -0.21609   0.53225   0.17248
  3.85965  -0.45897  -0.10485  -0.87443  -0.24577  -0.90208  -0.26130   0.39960   0.19251
  3.90977  -0.30702  -0.12024  -0.58494  -0.27509  -0.60342  -0.29155   0.26731   0.20591
  3.95990  -0.18292  -0.12941  -0.34851  -0.29256  -0.35951  -0.30957   0.15927   0.21390
  4.01003  -0.09703  -0.13427  -0.18487  -0.30182  -0.19071  -0.31913   0.08449   0.21813
  4.06015  -0.04581  -0.13657  -0.08728  -0.30620  -0.09003  -0.32364   0.03989   0.22013
  4.11028  -0.01924  -0.13753  -0.03665  -0.30803  -0.03781  -0.32554   0.01675   0.22097
  4.16040  -0.00718  -0.13789  -0.01369  -0.30872  -0.01412  -0.32625   0.00626   0.22128
  4.21053  -0.00238  -0.13801  -0.00454  -0.30895  -0.00469  -0.32648   0.00208   0.22139
  4.26065  -0.00070  -0.13805  -0.00134  -0.30902  -0.00138  -0.32655   0.00061   0.22142
  4.31078  -0.00018  -0.13806  -0.00035  -0.30903  -0.00036  -0.32657   0.00016   0.22143
  4.36090  -0.00004  -0.13806  -0.00008  -0.30904  -0.00008  -0.32657   0.00004   0.22143
  4.41103  -0.00001  -0.13806  -0.00002  -0.30904  -0.00002  -0.32657   0.00001   0.22143
  4.46115  -0.00000  -0.13806  -0.00000  -0.30904  -0.00000  -0.32657   0.00000   0.22143
  4.51128  -0.00000  -0.13806  -0.00000  -0.30904  -0.00000  -0.32657  -0.00000   0.22143
  4.56140  -0.00001  -0.13806  -0.00001  -0.30904  -0.00001  -0.32657  -0.00000   0.22143
  4.61153  -0.00003  -0.13806  -0.00003  -0.30904  -0.00003  -0.32657  -0.00002   0.22143
  4.66165  -0.00012  -0.13807  -0.00013  -0.30905  -0.00012  -0.32658  -0.00010   0.22142
  4.71178  -0.00048  -0.13809  -0.00052  -0.30907  -0.00050  -0.32661  -0.00042   0.22140
  4.76190  -0.00173  -0.13818  -0.00189  -0.30917  -0.00179  -0.32670  -0.00152   0.22132
  4.81203  -0.00554  -0.13846  -0.00605  -0.30947  -0.00572  -0.32698  -0.00486   0.22108
  4.86216  -0.01577  -0.13925  -0.01721  -0.31033  -0.01627  -0.32780  -0.01381   0.22039
  4.91228  -0.03985  -0.14125  -0.04354  -0.31252  -0.04110  -0.32986  -0.03491   0.21864
  4.96241  -0.08958  -0.14574  -0.09794  -0.31743  -0.09231  -0.33448  -0.07848   0.21470
  5.01253  -0.17918  -0.15472  -0.19605  -0.32725  -0.18451  -0.34373  -0.15698   0.20684
  5.06266  -0.31913  -0.17071  -0.34945  -0.34477  -0.32836  -0.36019  -0.27959   0.19282
  5.11278  -0.50643  -0.19610  -0.55496  -0.37259  -0.52067  -0.38629  -0.44367   0.17058
  5.16291  -0.71650  -0.23201  -0.78575  -0.41197  -0.73605  -0.42319  -0.62769   0.13912
  5.21303  -0.90425  -0.27734  -0.99238  -0.46172  -0.92822  -0.46971  -0.79215   0.09941
  5.26316  -1.01849  -0.32839  -1.11853  -0.51778  -1.04473  -0.52208  -0.89220   0.05469
  5.31328  -1.02418  -0.37973  -1.12552  -0.57420  -1.04986  -0.57471  -0.89717   0.00972
  5.36341  -0.91973  -0.42583  -1.01133  -0.62489  -0.94221  -0.62193  -0.80564  -0.03066
  5.41353  -0.73765  -0.46280  -0.81154  -0.66557  -0.75528  -0.65979  -0.64613  -0.06305
  5.46366  -0.52835  -0.48929  -0.58153  -0.69472  -0.54074  -0.68690  -0.46279  -0.08625
  5.51378  -0.33791  -0.50623  -0.37205  -0.71337  -0.34570  -0.70423  -0.29597  -0.10108
  5.56391  -0.19289  -0.51590  -0.21244  -0.72402  -0.19729  -0.71411  -0.16895  -0.10955
  5.61404  -0.09824  -0.52082  -0.10821  -0.72944  -0.10046  -0.71915  -0.08604  -0.11387
  5.66416  -0.04461  -0.52306  -0.04915  -0.73191  -0.04562  -0.72144  -0.03907  -0.11582
  5.71429  -0.01805  -0.52396  -0.01989  -0.73290  -0.01846  -0.72236  -0.01581  -0.11662
  5.76441  -0.00651  -0.52429  -0.00717  -0.73326  -0.00665  -0.72270  -0.00570  -0.11690
  5.81454  -0.00209  -0.52439  -0.00230  -0.73338  -0.00213  -0.72280  -0.00183  -0.11699
  5.86466  -0.00059  -0.52442  -0.00066  -0.73341  -0.00061  -0.72283  -0.00052  -0.11702
  5.91479  -0.00015  -0.52443  -0.00017  -0.73342  -0.00015  -0.72284  -0.00013  -0.11703
  5.96491  -0.00003  -0.52443  -0.00004  -0.73342  -0.00003  -0.72284  -0.00003  -0.11703
  6.01504  -0.00001  -0.52443  -0.00001  -0.73342  -0.00001  -0.72284  -0.00001  -0.11703
  6.06516  -0.00000  -0.52443  -0.00000  -0.73342  -0.00000  -0.72284  -0.00000  -0.11703
  6.11529  -0.00000  -0.52443  -0.00000  -0.73342  -0.00000  -0.72284  -0.00000  -0.11703
  6.16541  -0.00000  -0.52443  -0.00000  -0.73342  -0.00000  -0.72284  -0.00000  -0.11703
  6.21554  -0.00000  -0.52443  -0.00000  -0.73342  -0.00000  -0.72284  -0.00000  -0.11703
  6.26566  -0.00000  -0.52443  -0.00000  -0.73342  -0.00000  -0.72284  -0.00000  -0.11703
  6.31579  -0.00000  -0.52443  -0.00000  -0.73342  -0.00000  -0.72284  -0.00000  -0.11703
  6.36591  -0.00000  -0.52443  -0.00000  -0.73342  -0.00000  -0.72284  -0.00000  -0.11703
  6.41604  -0.00000  -0.52443  -0.00000  -0.73342  -0.00000  -0.72284  -0.00000  -0.11703
  6.46617  -0.00000  -0.52443  -0.00000  -0.73342  -0.00000  -0.72284  -0.00000  -0.11703