   3   3   0   0
  0.1706667E+03  0.8000000E-09  0.8000000E-09  0.8000000E-09  0.5000000E-15
  1.000000000000000E-004
  CAR 
 H2O                                     
      6.52701431    -25.12669872  301     -5.71159708      1.00000000
    -25.127  0.0000E+00  0.0000E+00
    -25.021  0.0000E+00  0.0000E+00
    -24.916  0.0000E+00  0.0000E+00
    -24.810  0.0000E+00  0.0000E+00
    -24.705  0.0000E+00  0.0000E+00
    -24.599  0.0000E+00  0.0000E+00
    -24.494  0.0000E+00  0.0000E+00
    -24.388  0.0000E+00  0.0000E+00
    -24.283  0.3157E-14  0.3331E-15
    -24.177  0.1028E-11  0.1088E-12
    -24.072  0.2199E-09  0.2331E-10
    -23.966  0.2720E-07  0.2893E-08
    -23.861  0.1950E-05  0.2086E-06
    -23.755  0.8117E-04  0.8773E-05
    -23.650  0.1966E-02  0.2162E-03
    -23.544  0.2776E-01  0.3145E-02
    -23.439  0.2290E+00  0.2730E-01
    -23.333  0.1106E+01  0.1440E+00
    -23.227  0.3134E+01  0.4746E+00
    -23.122  0.5215E+01  0.1025E+01
    -23.016  0.5100E+01  0.1563E+01
    -22.911  0.2932E+01  0.1872E+01
    -22.805  0.9898E+00  0.1977E+01
    -22.700  0.1960E+00  0.1997E+01
    -22.594  0.2272E-01  0.2000E+01
    -22.489  0.1538E-02  0.2000E+01
    -22.383  0.6072E-04  0.2000E+01
    -22.278  0.1394E-05  0.2000E+01
    -22.172  0.1858E-07  0.2000E+01
    -22.067  0.1435E-09  0.2000E+01
    -21.961  0.6407E-12  0.2000E+01
    -21.856  0.2104E-14  0.2000E+01
    -21.750  0.0000E+00  0.2000E+01
    -21.645  0.0000E+00  0.2000E+01
    -21.539  0.0000E+00  0.2000E+01
    -21.434  0.0000E+00  0.2000E+01
    -21.328  0.0000E+00  0.2000E+01
    -21.223  0.0000E+00  0.2000E+01
    -21.117  0.0000E+00  0.2000E+01
    -21.012  0.0000E+00  0.2000E+01
    -20.906  0.0000E+00  0.2000E+01
    -20.801  0.0000E+00  0.2000E+01
    -20.695  0.0000E+00  0.2000E+01
    -20.590  0.0000E+00  0.2000E+01
    -20.484  0.0000E+00  0.2000E+01
    -20.379  0.0000E+00  0.2000E+01
    -20.273  0.0000E+00  0.2000E+01
    -20.168  0.0000E+00  0.2000E+01
    -20.062  0.0000E+00  0.2000E+01
    -19.957  0.0000E+00  0.2000E+01
    -19.851  0.0000E+00  0.2000E+01
    -19.746  0.0000E+00  0.2000E+01
    -19.640  0.0000E+00  0.2000E+01
    -19.535  0.0000E+00  0.2000E+01
    -19.429  0.0000E+00  0.2000E+01
    -19.324  0.0000E+00  0.2000E+01
    -19.218  0.0000E+00  0.2000E+01
    -19.112  0.0000E+00  0.2000E+01
    -19.007  0.0000E+00  0.2000E+01
    -18.901  0.0000E+00  0.2000E+01
    -18.796  0.0000E+00  0.2000E+01
    -18.690  0.0000E+00  0.2000E+01
    -18.585  0.0000E+00  0.2000E+01
    -18.479  0.0000E+00  0.2000E+01
    -18.374  0.0000E+00  0.2000E+01
    -18.268  0.0000E+00  0.2000E+01
    -18.163  0.0000E+00  0.2000E+01
    -18.057  0.0000E+00  0.2000E+01
    -17.952  0.0000E+00  0.2000E+01
    -17.846  0.0000E+00  0.2000E+01
    -17.741  0.0000E+00  0.2000E+01
    -17.635  0.0000E+00  0.2000E+01
    -17.530  0.0000E+00  0.2000E+01
    -17.424  0.0000E+00  0.2000E+01
    -17.319  0.0000E+00  0.2000E+01
    -17.213  0.0000E+00  0.2000E+01
    -17.108  0.0000E+00  0.2000E+01
    -17.002  0.0000E+00  0.2000E+01
    -16.897  0.0000E+00  0.2000E+01
    -16.791  0.0000E+00  0.2000E+01
    -16.686  0.0000E+00  0.2000E+01
    -16.580  0.0000E+00  0.2000E+01
    -16.475  0.0000E+00  0.2000E+01
    -16.369  0.0000E+00  0.2000E+01
    -16.264  0.0000E+00  0.2000E+01
    -16.158  0.0000E+00  0.2000E+01
    -16.053  0.0000E+00  0.2000E+01
    -15.947  0.0000E+00  0.2000E+01
    -15.842  0.0000E+00  0.2000E+01
    -15.736  0.0000E+00  0.2000E+01
    -15.631  0.0000E+00  0.2000E+01
    -15.525  0.0000E+00  0.2000E+01
    -15.420  0.0000E+00  0.2000E+01
    -15.314  0.0000E+00  0.2000E+01
    -15.209  0.0000E+00  0.2000E+01
    -15.103  0.0000E+00  0.2000E+01
    -14.998  0.0000E+00  0.2000E+01
    -14.892  0.0000E+00  0.2000E+01
    -14.786  0.0000E+00  0.2000E+01
    -14.681  0.0000E+00  0.2000E+01
    -14.575  0.0000E+00  0.2000E+01
    -14.470  0.0000E+00  0.2000E+01
    -14.364  0.0000E+00  0.2000E+01
    -14.259  0.0000E+00  0.2000E+01
    -14.153  0.0000E+00  0.2000E+01
    -14.048  0.0000E+00  0.2000E+01
    -13.942  0.0000E+00  0.2000E+01
    -13.837  0.0000E+00  0.2000E+01
    -13.731  0.0000E+00  0.2000E+01
    -13.626  0.0000E+00  0.2000E+01
    -13.520  0.0000E+00  0.2000E+01
    -13.415  0.0000E+00  0.2000E+01
    -13.309  0.0000E+00  0.2000E+01
    -13.204  0.0000E+00  0.2000E+01
    -13.098  0.0000E+00  0.2000E+01
    -12.993  0.0000E+00  0.2000E+01
    -12.887  0.0000E+00  0.2000E+01
    -12.782  0.0000E+00  0.2000E+01
    -12.676  0.0000E+00  0.2000E+01
    -12.571  0.0000E+00  0.2000E+01
    -12.465  0.0000E+00  0.2000E+01
    -12.360  0.0000E+00  0.2000E+01
    -12.254  0.1052E-14  0.2000E+01
    -12.149  0.3490E-12  0.2000E+01
    -12.043  0.8285E-10  0.2000E+01
    -11.938  0.1137E-07  0.2000E+01
    -11.832  0.9038E-06  0.2000E+01
    -11.727  0.4171E-04  0.2000E+01
    -11.621  0.1119E-02  0.2000E+01
    -11.516  0.1750E-01  0.2002E+01
    -11.410  0.1599E+00  0.2019E+01
    -11.305  0.8546E+00  0.2109E+01
    -11.199  0.2679E+01  0.2392E+01
    -11.094  0.4932E+01  0.2912E+01
    -10.988  0.5335E+01  0.3475E+01
    -10.883  0.3393E+01  0.3833E+01
    -10.777  0.1267E+01  0.3967E+01
    -10.672  0.2777E+00  0.3996E+01
    -10.566  0.3564E-01  0.4000E+01
    -10.460  0.2673E-02  0.4000E+01
    -10.355  0.1169E-03  0.4000E+01
    -10.249  0.2975E-05  0.4000E+01
    -10.144  0.4397E-07  0.4000E+01
    -10.038  0.3767E-09  0.4000E+01
     -9.933  0.3638E-11  0.4000E+01
     -9.827  0.3586E-09  0.4000E+01
     -9.722  0.4208E-07  0.4000E+01
     -9.616  0.2862E-05  0.4000E+01
     -9.511  0.1131E-03  0.4000E+01
     -9.405  0.2599E-02  0.4000E+01
     -9.300  0.3483E-01  0.4004E+01
     -9.194  0.2729E+00  0.4033E+01
     -9.089  0.1252E+01  0.4165E+01
     -8.983  0.3369E+01  0.4520E+01
     -8.878  0.5325E+01  0.5082E+01
     -8.772  0.4948E+01  0.5604E+01
     -8.667  0.2702E+01  0.5889E+01
     -8.561  0.8665E+00  0.5981E+01
     -8.456  0.1629E+00  0.5998E+01
     -8.350  0.1793E-01  0.6000E+01
     -8.245  0.1153E-02  0.6000E+01
     -8.139  0.4319E-04  0.6000E+01
     -8.034  0.9409E-06  0.6000E+01
     -7.928  0.1190E-07  0.6000E+01
     -7.823  0.8720E-10  0.6000E+01
     -7.717  0.6209E-11  0.6000E+01
     -7.612  0.1052E-08  0.6000E+01
     -7.506  0.1097E-06  0.6000E+01
     -7.401  0.6632E-05  0.6000E+01
     -7.295  0.2330E-03  0.6000E+01
     -7.190  0.4766E-02  0.6001E+01
     -7.084  0.5687E-01  0.6007E+01
     -6.979  0.3968E+00  0.6048E+01
     -6.873  0.1622E+01  0.6220E+01
     -6.768  0.3890E+01  0.6630E+01
     -6.662  0.5483E+01  0.7208E+01
     -6.557  0.4542E+01  0.7688E+01
     -6.451  0.2211E+01  0.7921E+01
     -6.345  0.6319E+00  0.7988E+01
     -6.240  0.1059E+00  0.7999E+01
     -6.134  0.1038E-01  0.8000E+01
     -6.029  0.5937E-03  0.8000E+01
     -5.923  0.1979E-04  0.8000E+01
     -5.818  0.3834E-06  0.8000E+01
     -5.712  0.4310E-08  0.8000E+01
     -5.607  0.2807E-10  0.8000E+01
     -5.501  0.1060E-12  0.8000E+01
     -5.396  0.0000E+00  0.8000E+01
     -5.290  0.0000E+00  0.8000E+01
     -5.185  0.0000E+00  0.8000E+01
     -5.079  0.0000E+00  0.8000E+01
     -4.974  0.0000E+00  0.8000E+01
     -4.868  0.0000E+00  0.8000E+01
     -4.763  0.0000E+00  0.8000E+01
     -4.657  0.0000E+00  0.8000E+01
     -4.552  0.0000E+00  0.8000E+01
     -4.446  0.0000E+00  0.8000E+01
     -4.341  0.0000E+00  0.8000E+01
     -4.235  0.0000E+00  0.8000E+01
     -4.130  0.0000E+00  0.8000E+01
     -4.024  0.0000E+00  0.8000E+01
     -3.919  0.0000E+00  0.8000E+01
     -3.813  0.0000E+00  0.8000E+01
     -3.708  0.0000E+00  0.8000E+01
     -3.602  0.0000E+00  0.8000E+01
     -3.497  0.0000E+00  0.8000E+01
     -3.391  0.0000E+00  0.8000E+01
     -3.286  0.0000E+00  0.8000E+01
     -3.180  0.2973E-13  0.8000E+01
     -3.075  0.7877E-11  0.8000E+01
     -2.969  0.1223E-08  0.8000E+01
     -2.864  0.1116E-06  0.8000E+01
     -2.758  0.6017E-05  0.8000E+01
     -2.653  0.1927E-03  0.8000E+01
     -2.547  0.3686E-02  0.8000E+01
     -2.442  0.4240E-01  0.8005E+01
     -2.336  0.2949E+00  0.8036E+01
     -2.231  0.1247E+01  0.8168E+01
     -2.125  0.3216E+01  0.8507E+01
     -2.019  0.5073E+01  0.9042E+01
     -1.914  0.4896E+01  0.9559E+01
     -1.808  0.2887E+01  0.9863E+01
     -1.703  0.1037E+01  0.9973E+01
     -1.597  0.2260E+00  0.9997E+01
     -1.492  0.2974E-01  0.1000E+02
     -1.386  0.2349E-02  0.1000E+02
     -1.281  0.1109E-03  0.1000E+02
     -1.175  0.9088E-05  0.1000E+02
     -1.070  0.1957E-03  0.1000E+02
     -0.964  0.3791E-02  0.1000E+02
     -0.859  0.4380E-01  0.1001E+02
     -0.753  0.3038E+00  0.1004E+02
     -0.648  0.1273E+01  0.1017E+02
     -0.542  0.3245E+01  0.1051E+02
     -0.437  0.5062E+01  0.1105E+02
     -0.331  0.4854E+01  0.1156E+02
     -0.226  0.2865E+01  0.1186E+02
     -0.120  0.1040E+01  0.1197E+02
     -0.015  0.2324E+00  0.1200E+02
      0.091  0.4536E-01  0.1200E+02
      0.196  0.9397E-01  0.1201E+02
      0.302  0.3781E+00  0.1205E+02
      0.407  0.1075E+01  0.1216E+02
      0.513  0.2266E+01  0.1240E+02
      0.618  0.3645E+01  0.1279E+02
      0.724  0.4432E+01  0.1326E+02
      0.829  0.4336E+01  0.1371E+02
      0.935  0.4192E+01  0.1416E+02
      1.040  0.4450E+01  0.1463E+02
      1.146  0.4461E+01  0.1510E+02
      1.251  0.4101E+01  0.1553E+02
      1.357  0.4164E+01  0.1597E+02
      1.462  0.4878E+01  0.1648E+02
      1.568  0.5611E+01  0.1707E+02
      1.673  0.5904E+01  0.1770E+02
      1.779  0.5813E+01  0.1831E+02
      1.884  0.5628E+01  0.1890E+02
      1.990  0.5680E+01  0.1950E+02
      2.095  0.5884E+01  0.2012E+02
      2.201  0.6107E+01  0.2077E+02
      2.307  0.6769E+01  0.2148E+02
      2.412  0.7779E+01  0.2230E+02
      2.518  0.7986E+01  0.2315E+02
      2.623  0.6750E+01  0.2386E+02
      2.729  0.5218E+01  0.2441E+02
      2.834  0.4878E+01  0.2492E+02
      2.940  0.5569E+01  0.2551E+02
      3.045  0.6324E+01  0.2618E+02
      3.151  0.6926E+01  0.2691E+02
      3.256  0.7290E+01  0.2768E+02
      3.362  0.7310E+01  0.2845E+02
      3.467  0.7358E+01  0.2923E+02
      3.573  0.7269E+01  0.2999E+02
      3.678  0.6320E+01  0.3066E+02
      3.784  0.4458E+01  0.3113E+02
      3.889  0.2404E+01  0.3138E+02
      3.995  0.1027E+01  0.3149E+02
      4.100  0.6092E+00  0.3156E+02
      4.206  0.7295E+00  0.3163E+02
      4.311  0.8798E+00  0.3173E+02
      4.417  0.8949E+00  0.3182E+02
      4.522  0.7848E+00  0.3190E+02
      4.628  0.5431E+00  0.3196E+02
      4.733  0.2625E+00  0.3199E+02
      4.839  0.8190E-01  0.3200E+02
      4.944  0.1581E-01  0.3200E+02
      5.050  0.1842E-02  0.3200E+02
      5.155  0.1277E-03  0.3200E+02
      5.261  0.5214E-05  0.3200E+02
      5.366  0.1245E-06  0.3200E+02
      5.472  0.1733E-08  0.3200E+02
      5.577  0.1400E-10  0.3200E+02
      5.683  0.6550E-13  0.3200E+02
      5.788  0.2631E-15  0.3200E+02
      5.894  0.0000E+00  0.3200E+02
      5.999  0.0000E+00  0.3200E+02
      6.105  0.0000E+00  0.3200E+02
      6.210  0.0000E+00  0.3200E+02
      6.316  0.0000E+00  0.3200E+02
      6.422  0.0000E+00  0.3200E+02
      6.527  0.0000E+00  0.3200E+02
