   3    3    1    1
  5.1200000e+02   8.0000000e-10   8.0000000e-10   8.0000000e-10   5.0000000e-16
            1.000000e-04
  CAR
 DOS and projected DOS file by LOBSTER. Energy is shifted such that the Fermi level lies at 0 eV. 
      4.31346558     -15.73665974   401      -5.71159708       1.00000000
-10.02506   0.00000   2.00000
 -9.97494   0.00000   2.00000
 -9.92481   0.00000   2.00000
 -9.87469   0.00000   2.00000
 -9.82456   0.00000   2.00000
 -9.77444   0.00000   2.00000
 -9.72431   0.00000   2.00000
 -9.67419   0.00000   2.00000
 -9.62406   0.00000   2.00000
 -9.57393   0.00000   2.00000
 -9.52381   0.00000   2.00000
 -9.47368   0.00000   2.00000
 -9.42356   0.00000   2.00000
 -9.37343   0.00000   2.00000
 -9.32331   0.00000   2.00000
 -9.27318   0.00000   2.00000
 -9.22306   0.00000   2.00000
 -9.17293   0.00000   2.00000
 -9.12281   0.00000   2.00000
 -9.07268   0.00000   2.00000
 -9.02256   0.00000   2.00000
 -8.97243   0.00000   2.00000
 -8.92231   0.00000   2.00000
 -8.87218   0.00000   2.00000
 -8.82206   0.00000   2.00000
 -8.77193   0.00000   2.00000
 -8.72180   0.00000   2.00000
 -8.67168   0.00000   2.00000
 -8.62155   0.00000   2.00000
 -8.57143   0.00000   2.00000
 -8.52130   0.00000   2.00000
 -8.47118   0.00000   2.00000
 -8.42105   0.00000   2.00000
 -8.37093   0.00000   2.00000
 -8.32080   0.00000   2.00000
 -8.27068   0.00000   2.00000
 -8.22055   0.00000   2.00000
 -8.17043   0.00000   2.00000
 -8.12030   0.00000   2.00000
 -8.07018   0.00000   2.00000
 -8.02005   0.00000   2.00000
 -7.96992   0.00000   2.00000
 -7.91980   0.00000   2.00000
 -7.86967   0.00000   2.00000
 -7.81955   0.00000   2.00000
 -7.76942   0.00000   2.00000
 -7.71930   0.00000   2.00000
 -7.66917   0.00000   2.00000
 -7.61905   0.00000   2.00000
 -7.56892   0.00000   2.00000
 -7.51880   0.00000   2.00000
 -7.46867   0.00000   2.00000
 -7.41855   0.00000   2.00000
 -7.36842   0.00000   2.00000
 -7.31830   0.00000   2.00000
 -7.26817   0.00000   2.00000
 -7.21805   0.00000   2.00000
 -7.16792   0.00000   2.00000
 -7.11779   0.00000   2.00000
 -7.06767   0.00000   2.00000
 -7.01754   0.00000   2.00000
 -6.96742   0.00000   2.00000
 -6.91729   0.00000   2.00000
 -6.86717   0.00000   2.00000
 -6.81704   0.00000   2.00000
 -6.76692   0.00000   2.00000
 -6.71679   0.00000   2.00000
 -6.66667   0.00000   2.00000
 -6.61654   0.00000   2.00000
 -6.56642   0.00000   2.00000
 -6.51629   0.00000   2.00000
 -6.46617   0.00000   2.00000
 -6.41604   0.00000   2.00000
 -6.36591   0.00000   2.00000
 -6.31579   0.00000   2.00000
 -6.26566   0.00000   2.00000
 -6.21554   0.00000   2.00000
 -6.16541   0.00000   2.00000
 -6.11529   0.00000   2.00000
 -6.06516   0.00001   2.00000
 -6.01504   0.00007   2.00000
 -5.96491   0.00037   2.00002
 -5.91479   0.00164   2.00011
 -5.86466   0.00639   2.00043
 -5.81454   0.02200   2.00153
 -5.76441   0.06688   2.00488
 -5.71429   0.17952   2.01388
 -5.66416   0.42554   2.03521
 -5.61404   0.89076   2.07986
 -5.56391   1.64656   2.16239
 -5.51378   2.68780   2.29712
 -5.46366   3.87455   2.49133
 -5.41353   4.93232   2.73857
 -5.36341   5.54486   3.01650
 -5.31328   5.50477   3.29243
 -5.26316   4.82611   3.53434
 -5.21303   3.73650   3.72164
 -5.16291   2.55469   3.84969
 -5.11278   1.54247   3.92701
 -5.06266   0.82242   3.96823
 -5.01253   0.38723   3.98764
 -4.96241   0.16100   3.99571
 -4.91228   0.05911   3.99868
 -4.86216   0.01917   3.99964
 -4.81203   0.00549   3.99991
 -4.76190   0.00139   3.99998
 -4.71178   0.00031   4.00000
 -4.66165   0.00006   4.00000
 -4.61153   0.00001   4.00000
 -4.56140   0.00000   4.00000
 -4.51128   0.00000   4.00000
 -4.46115   0.00000   4.00000
 -4.41103   0.00000   4.00000
 -4.36090   0.00000   4.00000
 -4.31078   0.00000   4.00000
 -4.26065   0.00000   4.00000
 -4.21053   0.00000   4.00000
 -4.16040   0.00000   4.00000
 -4.11028   0.00000   4.00000
 -4.06015   0.00000   4.00000
 -4.01003   0.00000   4.00000
 -3.95990   0.00000   4.00000
 -3.90977   0.00000   4.00000
 -3.85965   0.00003   4.00000
 -3.80952   0.00014   4.00001
 -3.75940   0.00068   4.00004
 -3.70927   0.00286   4.00019
 -3.65915   0.01062   4.00072
 -3.60902   0.03478   4.00246
 -3.55890   0.10061   4.00750
 -3.50877   0.25702   4.02039
 -3.45865   0.57979   4.04945
 -3.40852   1.15496   4.10734
 -3.35840   2.03172   4.20918
 -3.30827   3.15620   4.36739
 -3.25815   4.32982   4.58442
 -3.20802   5.24545   4.84735
 -3.15789   5.61184   5.12865
 -3.10777   5.30197   5.39441
 -3.05764   4.42363   5.61615
 -3.00752   3.25933   5.77952
 -2.95739   2.12072   5.88582
 -2.90727   1.21855   5.94690
 -2.85714   0.61830   5.97790
 -2.80702   0.27705   5.99178
 -2.75689   0.10962   5.99728
 -2.70677   0.03830   5.99920
 -2.65664   0.01182   5.99979
 -2.60652   0.00322   5.99995
 -2.55639   0.00077   5.99999
 -2.50627   0.00016   6.00000
 -2.45614   0.00003   6.00000
 -2.40602   0.00001   6.00000
 -2.35589   0.00000   6.00000
 -2.30576   0.00000   6.00000
 -2.25564   0.00000   6.00000
 -2.20551   0.00000   6.00000
 -2.15539   0.00000   6.00000
 -2.10526   0.00000   6.00000
 -2.05514   0.00000   6.00000
 -2.00501   0.00000   6.00000
 -1.95489   0.00000   6.00000
 -1.90476   0.00000   6.00000
 -1.85464   0.00000   6.00000
 -1.80451   0.00000   6.00000
 -1.75439   0.00000   6.00000
 -1.70426   0.00001   6.00000
 -1.65414   0.00004   6.00000
 -1.60401   0.00021   6.00001
 -1.55388   0.00099   6.00006
 -1.50376   0.00402   6.00026
 -1.45363   0.01446   6.00099
 -1.40351   0.04591   6.00329
 -1.35338   0.12873   6.00974
 -1.30326   0.31877   6.02572
 -1.25313   0.69703   6.06066
 -1.20301   1.34596   6.12813
 -1.15288   2.29515   6.24317
 -1.10276   3.45616   6.41641
 -1.05263   4.59604   6.64679
 -1.00251   5.39738   6.91734
 -0.95238   5.59749   7.19791
 -0.90226   5.12641   7.45487
 -0.85213   4.14614   7.66270
 -0.80201   2.96130   7.81114
 -0.75188   1.86779   7.90476
 -0.70175   1.04034   7.95691
 -0.65163   0.51171   7.98256
 -0.60150   0.22226   7.99370
 -0.55138   0.08525   7.99797
 -0.50125   0.02887   7.99942
 -0.45113   0.00864   7.99985
 -0.40100   0.00228   7.99997
 -0.35088   0.00053   7.99999
 -0.30075   0.00011   8.00000
 -0.25063   0.00002   8.00000
 -0.20050   0.00000   8.00000
 -0.15038   0.00000   8.00000
 -0.10025   0.00000   8.00000
 -0.05013   0.00000   8.00000
  0.00000   0.00000   8.00000
  0.05013   0.00000   8.00000
  0.10025   0.00000   8.00000
  0.15038   0.00000   8.00000
  0.20050   0.00000   8.00000
  0.25063   0.00000   8.00000
  0.30075   0.00000   8.00000
  0.35088   0.00000   8.00000
  0.40100   0.00000   8.00000
  0.45113   0.00000   8.00000
  0.50125   0.00000   8.00000
  0.55138   0.00000   8.00000
  0.60150   0.00000   8.00000
  0.65163   0.00000   8.00000
  0.70175   0.00000   8.00000
  0.75188   0.00000   8.00000
  0.80201   0.00000   8.00000
  0.85213   0.00000   8.00000
  0.90226   0.00000   8.00000
  0.95238   0.00000   8.00000
  1.00251   0.00000   8.00000
  1.05263   0.00000   8.00000
  1.10276   0.00000   8.00000
  1.15288   0.00000   8.00000
  1.20301   0.00000   8.00000
  1.25313   0.00000   8.00000
  1.30326   0.00000   8.00000
  1.35338   0.00000   8.00000
  1.40351   0.00000   8.00000
  1.45363   0.00000   8.00000
  1.50376   0.00000   8.00000
  1.55388   0.00000   8.00000
  1.60401   0.00000   8.00000
  1.65414   0.00000   8.00000
  1.70426   0.00000   8.00000
  1.75439   0.00000   8.00000
  1.80451   0.00000   8.00000
  1.85464   0.00000   8.00000
  1.90476   0.00000   8.00000
  1.95489   0.00000   8.00000
  2.00501   0.00000   8.00000
  2.05514   0.00000   8.00000
  2.10526   0.00000   8.00000
  2.15539   0.00000   8.00000
  2.20551   0.00000   8.00000
  2.25564   0.00000   8.00000
  2.30576   0.00000   8.00000
  2.35589   0.00000   8.00000
  2.40602   0.00000   8.00000
  2.45614  -0.00000   8.00000
  2.50627   0.00000   8.00000
  2.55639   0.00000   8.00000
  2.60652   0.00000   8.00000
  2.65664   0.00000   8.00000
  2.70677   0.00000   8.00000
  2.75689   0.00000   8.00000
  2.80702   0.00000   8.00000
  2.85714   0.00000   8.00000
  2.90727   0.00000   8.00000
  2.95739   0.00001   8.00000
  3.00752   0.00007   8.00000
  3.05764   0.00032   8.00002
  3.10777   0.00136   8.00009
  3.15789   0.00512   8.00035
  3.20802   0.01720   8.00121
  3.25815   0.05139   8.00378
  3.30827   0.13666   8.01063
  3.35840   0.32359   8.02685
  3.40852   0.68265   8.06107
  3.45865   1.28342   8.12540
  3.50877   2.15098   8.23322
  3.55890   3.21430   8.39434
  3.60902   4.28327   8.60904
  3.65915   5.09004   8.86418
  3.70927   5.39398   9.13455
  3.75940   5.09672   9.39003
  3.80952   4.29324   9.60523
  3.85965   3.22318   9.76679
  3.90977   2.15603   9.87486
  3.95990   1.28454   9.93925
  4.01003   0.68138   9.97341
  4.06015   0.32167   9.98953
  4.11028   0.13509   9.99630
  4.16040   0.05044   9.99883
  4.21053   0.01674   9.99967
  4.26065   0.00494   9.99992
  4.31078   0.00129   9.99998
  4.36090   0.00030  10.00000
  4.41103   0.00006  10.00000
  4.46115   0.00001  10.00000
  4.51128   0.00001  10.00000
  4.56140   0.00003  10.00000
  4.61153   0.00013  10.00001
  4.66165   0.00061  10.00004
  4.71178   0.00249  10.00016
  4.76190   0.00896  10.00061
  4.81203   0.02870  10.00205
  4.86216   0.08162  10.00614
  4.91228   0.20632  10.01648
  4.96241   0.46375  10.03973
  5.01253   0.92760  10.08623
  5.06266   1.65209  10.16904
  5.11278   2.62167  10.30045
  5.16291   3.70905  10.48637
  5.21303   4.68090  10.72100
  5.26316   5.27215  10.98527
  5.31328   5.30152  11.25101
  5.36341   4.76074  11.48964
  5.41353   3.81818  11.68103
  5.46366   2.73478  11.81811
  5.51378   1.74899  11.90578
  5.56391   0.99839  11.95582
  5.61404   0.50846  11.98131
  5.66416   0.23090  11.99288
  5.71429   0.09343  11.99757
  5.76441   0.03367  11.99925
  5.81454   0.01080  11.99980
  5.86466   0.00308  11.99995
  5.91479   0.00078  11.99999
  5.96491   0.00018  12.00000
  6.01504   0.00004  12.00000
  6.06516   0.00001  12.00000
  6.11529   0.00000  12.00000
  6.16541   0.00000  12.00000
  6.21554   0.00000  12.00000
  6.26566   0.00000  12.00000
  6.31579   0.00000  12.00000
  6.36591   0.00000  12.00000
  6.41604   0.00000  12.00000
  6.46617   0.00000  12.00000
  6.51629  -0.00000  12.00000
  6.56642   0.00000  12.00000
  6.61654   0.00000  12.00000
  6.66667   0.00000  12.00000
  6.71679   0.00000  12.00000
  6.76692   0.00000  12.00000
  6.81704   0.00000  12.00000
  6.86717   0.00000  12.00000
  6.91729   0.00000  12.00000
  6.96742   0.00000  12.00000
  7.01754   0.00000  12.00000
  7.06767   0.00000  12.00000
  7.11779   0.00000  12.00000
  7.16792   0.00000  12.00000
  7.21805   0.00000  12.00000
  7.26817   0.00000  12.00000
  7.31830   0.00000  12.00000
  7.36842   0.00000  12.00000
  7.41855   0.00000  12.00000
  7.46867   0.00000  12.00000
  7.51880   0.00000  12.00000
  7.56892   0.00000  12.00000
  7.61905   0.00000  12.00000
  7.66917   0.00000  12.00000
  7.71930   0.00000  12.00000
  7.76942   0.00000  12.00000
  7.81955   0.00000  12.00000
  7.86967   0.00000  12.00000
  7.91980   0.00000  12.00000
  7.96992   0.00000  12.00000
  8.02005   0.00000  12.00000
  8.07018   0.00000  12.00000
  8.12030   0.00000  12.00000
  8.17043   0.00000  12.00000
  8.22055   0.00000  12.00000
  8.27068   0.00000  12.00000
  8.32080   0.00000  12.00000
  8.37093   0.00000  12.00000
  8.42105   0.00000  12.00000
  8.47118   0.00000  12.00000
  8.52130   0.00000  12.00000
  8.57143   0.00000  12.00000
  8.62155   0.00000  12.00000
  8.67168   0.00000  12.00000
  8.72180   0.00000  12.00000
  8.77193   0.00000  12.00000
  8.82206   0.00000  12.00000
  8.87218   0.00000  12.00000
  8.92231   0.00000  12.00000
  8.97243   0.00000  12.00000
  9.02256   0.00000  12.00000
  9.07268   0.00000  12.00000
  9.12281   0.00000  12.00000
  9.17293   0.00000  12.00000
  9.22306   0.00000  12.00000
  9.27318   0.00000  12.00000
  9.32331   0.00000  12.00000
  9.37343   0.00000  12.00000
  9.42356   0.00000  12.00000
  9.47368   0.00000  12.00000
  9.52381   0.00000  12.00000
  9.57393   0.00000  12.00000
  9.62406   0.00000  12.00000
  9.67419   0.00000  12.00000
  9.72431   0.00000  12.00000
  9.77444   0.00000  12.00000
  9.82456   0.00000  12.00000
  9.87469   0.00000  12.00000
  9.92481   0.00000  12.00000
  9.97494   0.00000  12.00000
 10.02506   0.00000  12.00000
     10.02506266     -10.02506266   401      -5.71159708       1.00000000; Z=  8; 2s 2p_y 2p_z 2p_x 
-10.02506   0.00000   0.00000   0.00000   0.00000
 -9.97494   0.00000   0.00000   0.00000   0.00000
 -9.92481   0.00000   0.00000   0.00000   0.00000
 -9.87469   0.00000   0.00000   0.00000   0.00000
 -9.82456   0.00000   0.00000   0.00000   0.00000
 -9.77444   0.00000   0.00000   0.00000   0.00000
 -9.72431   0.00000   0.00000   0.00000   0.00000
 -9.67419   0.00000   0.00000   0.00000   0.00000
 -9.62406   0.00000   0.00000   0.00000   0.00000
 -9.57393   0.00000   0.00000   0.00000   0.00000
 -9.52381   0.00000   0.00000   0.00000   0.00000
 -9.47368   0.00000   0.00000   0.00000   0.00000
 -9.42356   0.00000   0.00000   0.00000   0.00000
 -9.37343   0.00000   0.00000   0.00000   0.00000
 -9.32331   0.00000   0.00000   0.00000   0.00000
 -9.27318   0.00000   0.00000   0.00000   0.00000
 -9.22306   0.00000   0.00000   0.00000   0.00000
 -9.17293   0.00000   0.00000   0.00000   0.00000
 -9.12281   0.00000   0.00000   0.00000   0.00000
 -9.07268   0.00000   0.00000   0.00000   0.00000
 -9.02256   0.00000   0.00000   0.00000   0.00000
 -8.97243   0.00000   0.00000   0.00000   0.00000
 -8.92231   0.00000   0.00000   0.00000   0.00000
 -8.87218   0.00000   0.00000   0.00000   0.00000
 -8.82206   0.00000   0.00000   0.00000   0.00000
 -8.77193   0.00000   0.00000   0.00000   0.00000
 -8.72180   0.00000   0.00000   0.00000   0.00000
 -8.67168   0.00000   0.00000   0.00000   0.00000
 -8.62155   0.00000   0.00000   0.00000   0.00000
 -8.57143   0.00000   0.00000   0.00000   0.00000
 -8.52130   0.00000   0.00000   0.00000   0.00000
 -8.47118   0.00000   0.00000   0.00000   0.00000
 -8.42105   0.00000   0.00000   0.00000   0.00000
 -8.37093   0.00000   0.00000   0.00000   0.00000
 -8.32080   0.00000   0.00000   0.00000   0.00000
 -8.27068   0.00000   0.00000   0.00000   0.00000
 -8.22055   0.00000   0.00000   0.00000   0.00000
 -8.17043   0.00000   0.00000   0.00000   0.00000
 -8.12030   0.00000   0.00000   0.00000   0.00000
 -8.07018   0.00000   0.00000   0.00000   0.00000
 -8.02005   0.00000   0.00000   0.00000   0.00000
 -7.96992   0.00000   0.00000   0.00000   0.00000
 -7.91980   0.00000   0.00000   0.00000   0.00000
 -7.86967   0.00000   0.00000   0.00000   0.00000
 -7.81955   0.00000   0.00000   0.00000   0.00000
 -7.76942   0.00000   0.00000   0.00000   0.00000
 -7.71930   0.00000   0.00000   0.00000   0.00000
 -7.66917   0.00000   0.00000   0.00000   0.00000
 -7.61905   0.00000   0.00000   0.00000   0.00000
 -7.56892   0.00000   0.00000   0.00000   0.00000
 -7.51880   0.00000   0.00000   0.00000   0.00000
 -7.46867   0.00000   0.00000   0.00000   0.00000
 -7.41855   0.00000   0.00000   0.00000   0.00000
 -7.36842   0.00000   0.00000   0.00000   0.00000
 -7.31830   0.00000   0.00000   0.00000   0.00000
 -7.26817   0.00000   0.00000   0.00000   0.00000
 -7.21805   0.00000   0.00000   0.00000   0.00000
 -7.16792   0.00000   0.00000   0.00000   0.00000
 -7.11779   0.00000   0.00000   0.00000   0.00000
 -7.06767   0.00000   0.00000   0.00000   0.00000
 -7.01754   0.00000   0.00000   0.00000   0.00000
 -6.96742   0.00000   0.00000   0.00000   0.00000
 -6.91729   0.00000   0.00000   0.00000   0.00000
 -6.86717   0.00000   0.00000   0.00000   0.00000
 -6.81704   0.00000   0.00000   0.00000   0.00000
 -6.76692   0.00000   0.00000   0.00000   0.00000
 -6.71679   0.00000   0.00000   0.00000   0.00000
 -6.66667   0.00000   0.00000   0.00000   0.00000
 -6.61654   0.00000   0.00000   0.00000   0.00000
 -6.56642   0.00000   0.00000   0.00000   0.00000
 -6.51629   0.00000   0.00000   0.00000   0.00000
 -6.46617   0.00000   0.00000   0.00000   0.00000
 -6.41604   0.00000   0.00000   0.00000   0.00000
 -6.36591  -0.00000   0.00000   0.00000   0.00000
 -6.31579  -0.00000   0.00000   0.00000   0.00000
 -6.26566   0.00000   0.00000   0.00000   0.00000
 -6.21554   0.00000   0.00000   0.00000   0.00000
 -6.16541   0.00000   0.00000   0.00000   0.00000
 -6.11529   0.00000   0.00000   0.00000   0.00000
 -6.06516   0.00000   0.00000   0.00001   0.00000
 -6.01504   0.00000   0.00000   0.00003   0.00002
 -5.96491   0.00000   0.00000   0.00015   0.00009
 -5.91479   0.00000   0.00000   0.00067   0.00042
 -5.86466   0.00000   0.00000   0.00261   0.00162
 -5.81454   0.00000   0.00000   0.00897   0.00557
 -5.76441   0.00000   0.00000   0.02728   0.01694
 -5.71429   0.00000   0.00000   0.07322   0.04547
 -5.66416   0.00000   0.00000   0.17357   0.10778
 -5.61404   0.00000   0.00000   0.36333   0.22562
 -5.56391   0.00001   0.00000   0.67161   0.41705
 -5.51378   0.00001   0.00000   1.09631   0.68078
 -5.46366   0.00002   0.00000   1.58036   0.98137
 -5.41353   0.00002   0.00000   2.01181   1.24929
 -5.36341   0.00003   0.00000   2.26166   1.40443
 -5.31328   0.00003   0.00000   2.24530   1.39428
 -5.26316   0.00002   0.00000   1.96849   1.22238
 -5.21303   0.00002   0.00000   1.52405   0.94640
 -5.16291   0.00001   0.00000   1.04201   0.64706
 -5.11278   0.00001   0.00000   0.62914   0.39068
 -5.06266   0.00000   0.00000   0.33545   0.20831
 -5.01253   0.00000   0.00000   0.15794   0.09808
 -4.96241   0.00000   0.00000   0.06567   0.04078
 -4.91228   0.00000   0.00000   0.02411   0.01497
 -4.86216   0.00000   0.00000   0.00782   0.00485
 -4.81203   0.00000   0.00000   0.00224   0.00139
 -4.76190   0.00000   0.00000   0.00057   0.00035
 -4.71178   0.00000   0.00000   0.00013   0.00008
 -4.66165   0.00000   0.00000   0.00002   0.00002
 -4.61153   0.00000   0.00000   0.00000   0.00000
 -4.56140   0.00000   0.00000   0.00000   0.00000
 -4.51128   0.00000   0.00000   0.00000   0.00000
 -4.46115   0.00000   0.00000   0.00000   0.00000
 -4.41103   0.00000   0.00000   0.00000   0.00000
 -4.36090   0.00000   0.00000   0.00000   0.00000
 -4.31078  -0.00000   0.00000   0.00000   0.00000
 -4.26065   0.00000   0.00000   0.00000   0.00000
 -4.21053   0.00000   0.00000   0.00000   0.00000
 -4.16040   0.00000   0.00000   0.00000   0.00000
 -4.11028   0.00000   0.00000   0.00000   0.00000
 -4.06015   0.00000   0.00000   0.00000   0.00000
 -4.01003   0.00000   0.00000   0.00000   0.00000
 -3.95990   0.00000   0.00000   0.00000   0.00000
 -3.90977   0.00000   0.00000   0.00000   0.00000
 -3.85965   0.00000   0.00000   0.00001   0.00001
 -3.80952   0.00001   0.00000   0.00004   0.00007
 -3.75940   0.00006   0.00000   0.00019   0.00032
 -3.70927   0.00024   0.00000   0.00082   0.00132
 -3.65915   0.00089   0.00000   0.00304   0.00491
 -3.60902   0.00292   0.00000   0.00995   0.01609
 -3.55890   0.00845   0.00000   0.02877   0.04654
 -3.50877   0.02159   0.00000   0.07350   0.11889
 -3.45865   0.04870   0.00000   0.16581   0.26820
 -3.40852   0.09702   0.00000   0.33030   0.53426
 -3.35840   0.17067   0.00000   0.58104   0.93983
 -3.30827   0.26512   0.00000   0.90263   1.45998
 -3.25815   0.36371   0.00000   1.23826   2.00287
 -3.20802   0.44062   0.00000   1.50012   2.42642
 -3.15789   0.47140   0.00000   1.60490   2.59591
 -3.10777   0.44537   0.00000   1.51629   2.45257
 -3.05764   0.37159   0.00000   1.26509   2.04627
 -3.00752   0.27378   0.00000   0.93212   1.50769
 -2.95739   0.17814   0.00000   0.60650   0.98100
 -2.90727   0.10236   0.00000   0.34849   0.56367
 -2.85714   0.05194   0.00000   0.17682   0.28601
 -2.80702   0.02327   0.00000   0.07923   0.12816
 -2.75689   0.00921   0.00000   0.03135   0.05071
 -2.70677   0.00322   0.00000   0.01095   0.01772
 -2.65664   0.00099   0.00000   0.00338   0.00547
 -2.60652   0.00027   0.00000   0.00092   0.00149
 -2.55639   0.00007   0.00000   0.00022   0.00036
 -2.50627   0.00001   0.00000   0.00005   0.00008
 -2.45614   0.00000   0.00000   0.00001   0.00001
 -2.40602   0.00000   0.00000   0.00000   0.00000
 -2.35589   0.00000   0.00000   0.00000   0.00000
 -2.30576   0.00000   0.00000   0.00000   0.00000
 -2.25564   0.00000   0.00000   0.00000   0.00000
 -2.20551   0.00000   0.00000   0.00000   0.00000
 -2.15539   0.00000   0.00000   0.00000   0.00000
 -2.10526   0.00000   0.00000   0.00000   0.00000
 -2.05514   0.00000   0.00000   0.00000   0.00000
 -2.00501   0.00000   0.00000   0.00000   0.00000
 -1.95489  -0.00000   0.00000  -0.00000  -0.00000
 -1.90476  -0.00000   0.00000  -0.00000  -0.00000
 -1.85464   0.00000   0.00000  -0.00000  -0.00000
 -1.80451   0.00000   0.00000   0.00000   0.00000
 -1.75439   0.00000   0.00000   0.00000   0.00000
 -1.70426   0.00000   0.00001   0.00000   0.00000
 -1.65414   0.00000   0.00004   0.00000   0.00000
 -1.60401   0.00000   0.00021   0.00000   0.00000
 -1.55388   0.00000   0.00099   0.00000   0.00000
 -1.50376   0.00000   0.00402   0.00000   0.00000
 -1.45363   0.00000   0.01446   0.00000   0.00000
 -1.40351   0.00000   0.04591   0.00000   0.00000
 -1.35338   0.00000   0.12873   0.00000   0.00000
 -1.30326   0.00000   0.31877   0.00000   0.00000
 -1.25313   0.00000   0.69703   0.00000   0.00000
 -1.20301   0.00000   1.34596   0.00000   0.00000
 -1.15288   0.00000   2.29514   0.00000   0.00000
 -1.10276   0.00000   3.45615   0.00000   0.00000
 -1.05263   0.00000   4.59604   0.00000   0.00000
 -1.00251   0.00000   5.39738   0.00000   0.00000
 -0.95238   0.00000   5.59748   0.00000   0.00000
 -0.90226   0.00000   5.12641   0.00000   0.00000
 -0.85213   0.00000   4.14614   0.00000   0.00000
 -0.80201   0.00000   2.96130   0.00000   0.00000
 -0.75188   0.00000   1.86779   0.00000   0.00000
 -0.70175   0.00000   1.04034   0.00000   0.00000
 -0.65163   0.00000   0.51171   0.00000   0.00000
 -0.60150   0.00000   0.22226   0.00000   0.00000
 -0.55138   0.00000   0.08525   0.00000   0.00000
 -0.50125   0.00000   0.02887   0.00000   0.00000
 -0.45113   0.00000   0.00864   0.00000   0.00000
 -0.40100   0.00000   0.00228   0.00000   0.00000
 -0.35088   0.00000   0.00053   0.00000   0.00000
 -0.30075   0.00000   0.00011   0.00000   0.00000
 -0.25063   0.00000   0.00002   0.00000   0.00000
 -0.20050   0.00000   0.00000   0.00000   0.00000
 -0.15038   0.00000   0.00000   0.00000   0.00000
 -0.10025   0.00000   0.00000   0.00000   0.00000
 -0.05013  -0.00000   0.00000   0.00000  -0.00000
  0.00000  -0.00000   0.00000  -0.00000  -0.00000
  0.05013  -0.00000   0.00000  -0.00000  -0.00000
  0.10025  -0.00000   0.00000  -0.00000   0.00000
  0.15038  -0.00000   0.00000  -0.00000  -0.00000
  0.20050  -0.00000   0.00000  -0.00000  -0.00000
  0.25063   0.00000   0.00000   0.00000   0.00000
  0.30075   0.00000   0.00000   0.00000   0.00000
  0.35088   0.00000   0.00000   0.00000   0.00000
  0.40100   0.00000   0.00000   0.00000   0.00000
  0.45113   0.00000   0.00000   0.00000   0.00000
  0.50125   0.00000   0.00000   0.00000   0.00000
  0.55138   0.00000   0.00000   0.00000   0.00000
  0.60150   0.00000   0.00000   0.00000   0.00000
  0.65163   0.00000   0.00000   0.00000   0.00000
  0.70175   0.00000   0.00000   0.00000   0.00000
  0.75188   0.00000   0.00000   0.00000   0.00000
  0.80201   0.00000   0.00000   0.00000   0.00000
  0.85213   0.00000   0.00000   0.00000   0.00000
  0.90226   0.00000   0.00000   0.00000   0.00000
  0.95238   0.00000   0.00000   0.00000   0.00000
  1.00251   0.00000   0.00000   0.00000   0.00000
  1.05263   0.00000   0.00000   0.00000   0.00000
  1.10276   0.00000   0.00000   0.00000   0.00000
  1.15288   0.00000   0.00000   0.00000   0.00000
  1.20301   0.00000   0.00000   0.00000   0.00000
  1.25313   0.00000   0.00000   0.00000   0.00000
  1.30326   0.00000   0.00000   0.00000   0.00000
  1.35338   0.00000   0.00000   0.00000   0.00000
  1.40351   0.00000   0.00000   0.00000   0.00000
  1.45363   0.00000   0.00000   0.00000   0.00000
  1.50376   0.00000   0.00000   0.00000   0.00000
  1.55388   0.00000   0.00000   0.00000   0.00000
  1.60401   0.00000   0.00000   0.00000   0.00000
  1.65414   0.00000   0.00000   0.00000   0.00000
  1.70426   0.00000   0.00000   0.00000   0.00000
  1.75439   0.00000   0.00000   0.00000   0.00000
  1.80451   0.00000   0.00000   0.00000   0.00000
  1.85464   0.00000   0.00000   0.00000   0.00000
  1.90476   0.00000   0.00000   0.00000   0.00000
  1.95489   0.00000   0.00000   0.00000   0.00000
  2.00501   0.00000   0.00000   0.00000   0.00000
  2.05514   0.00000   0.00000   0.00000   0.00000
  2.10526   0.00000   0.00000   0.00000   0.00000
  2.15539   0.00000   0.00000   0.00000   0.00000
  2.20551   0.00000   0.00000   0.00000   0.00000
  2.25564   0.00000   0.00000   0.00000   0.00000
  2.30576   0.00000   0.00000   0.00000   0.00000
  2.35589   0.00000   0.00000   0.00000   0.00000
  2.40602   0.00000   0.00000   0.00000   0.00000
  2.45614  -0.00000   0.00000  -0.00000  -0.00000
  2.50627  -0.00000  -0.00000  -0.00000  -0.00000
  2.55639   0.00000  -0.00000   0.00000   0.00000
  2.60652   0.00000  -0.00000   0.00000   0.00000
  2.65664   0.00000  -0.00000   0.00000   0.00000
  2.70677   0.00000  -0.00000   0.00000   0.00000
  2.75689   0.00000  -0.00000   0.00000   0.00000
  2.80702   0.00000   0.00000   0.00000   0.00000
  2.85714   0.00000   0.00000   0.00000   0.00000
  2.90727   0.00000   0.00000   0.00000   0.00000
  2.95739   0.00000   0.00000   0.00000   0.00000
  3.00752   0.00000   0.00000   0.00001   0.00001
  3.05764   0.00001   0.00000   0.00003   0.00004
  3.10777   0.00005   0.00000   0.00012   0.00019
  3.15789   0.00020   0.00000   0.00046   0.00071
  3.20802   0.00069   0.00000   0.00155   0.00237
  3.25815   0.00205   0.00000   0.00464   0.00709
  3.30827   0.00545   0.00000   0.01235   0.01886
  3.35840   0.01291   0.00000   0.02924   0.04467
  3.40852   0.02724   0.00000   0.06171   0.09425
  3.45865   0.05121   0.00000   0.11604   0.17722
  3.50877   0.08582   0.00000   0.19452   0.29707
  3.55890   0.12825   0.00000   0.29074   0.44402
  3.60902   0.17089   0.00000   0.38750   0.59181
  3.65915   0.20308   0.00000   0.46057   0.70344
  3.70927   0.21520   0.00000   0.48814   0.74562
  3.75940   0.20334   0.00000   0.46130   0.70469
  3.80952   0.17128   0.00000   0.38863   0.59374
  3.85965   0.12859   0.00000   0.29180   0.44585
  3.90977   0.08601   0.00000   0.19522   0.29830
  3.95990   0.05124   0.00000   0.11632   0.17776
  4.01003   0.02718   0.00000   0.06171   0.09431
  4.06015   0.01283   0.00000   0.02914   0.04453
  4.11028   0.00539   0.00000   0.01224   0.01870
  4.16040   0.00201   0.00000   0.00457   0.00699
  4.21053   0.00067   0.00000   0.00152   0.00232
  4.26065   0.00020   0.00000   0.00045   0.00068
  4.31078   0.00005   0.00000   0.00012   0.00018
  4.36090   0.00001   0.00000   0.00003   0.00004
  4.41103   0.00000   0.00000   0.00001   0.00001
  4.46115   0.00000   0.00000   0.00000   0.00000
  4.51128   0.00000   0.00000   0.00000   0.00000
  4.56140   0.00000   0.00000   0.00001   0.00000
  4.61153   0.00000   0.00000   0.00003   0.00002
  4.66165   0.00000   0.00000   0.00013   0.00008
  4.71178   0.00000   0.00000   0.00052   0.00032
  4.76190   0.00000   0.00000   0.00187   0.00116
  4.81203   0.00000   0.00000   0.00598   0.00373
  4.86216   0.00000   0.00000   0.01699   0.01063
  4.91228   0.00001   0.00000   0.04291   0.02690
  4.96241   0.00002   0.00000   0.09640   0.06053
  5.01253   0.00005   0.00000   0.19271   0.12122
  5.06266   0.00009   0.00000   0.34302   0.21619
  5.11278   0.00013   0.00000   0.54400   0.34352
  5.16291   0.00019   0.00000   0.76917   0.48665
  5.21303   0.00023   0.00000   0.97016   0.61498
  5.26316   0.00026   0.00000   1.09213   0.69355
  5.31328   0.00025   0.00000   1.09768   0.69827
  5.36341   0.00023   0.00000   0.98531   0.62775
  5.41353   0.00018   0.00000   0.78995   0.50399
  5.46366   0.00013   0.00000   0.56565   0.36131
  5.51378   0.00008   0.00000   0.36169   0.23125
  5.56391   0.00004   0.00000   0.20644   0.13209
  5.61404   0.00002   0.00000   0.10513   0.06731
  5.66416   0.00001   0.00000   0.04774   0.03058
  5.71429   0.00000   0.00000   0.01932   0.01238
  5.76441   0.00000   0.00000   0.00696   0.00446
  5.81454   0.00000   0.00000   0.00223   0.00143
  5.86466   0.00000   0.00000   0.00064   0.00041
  5.91479   0.00000   0.00000   0.00016   0.00010
  5.96491   0.00000   0.00000   0.00004   0.00002
  6.01504   0.00000   0.00000   0.00001   0.00000
  6.06516   0.00000   0.00000   0.00000   0.00000
  6.11529   0.00000   0.00000   0.00000   0.00000
  6.16541   0.00000   0.00000   0.00000   0.00000
  6.21554   0.00000   0.00000   0.00000   0.00000
  6.26566   0.00000   0.00000   0.00000   0.00000
  6.31579   0.00000   0.00000   0.00000   0.00000
  6.36591  -0.00000   0.00000   0.00000   0.00000
  6.41604   0.00000   0.00000   0.00000   0.00000
  6.46617  -0.00000   0.00000   0.00000   0.00000
  6.51629  -0.00000   0.00000   0.00000  -0.00000
  6.56642   0.00000   0.00000   0.00000   0.00000
  6.61654   0.00000   0.00000   0.00000   0.00000
  6.66667   0.00000   0.00000   0.00000   0.00000
  6.71679   0.00000   0.00000   0.00000   0.00000
  6.76692   0.00000   0.00000   0.00000   0.00000
  6.81704   0.00000   0.00000   0.00000   0.00000
  6.86717   0.00000   0.00000   0.00000   0.00000
  6.91729   0.00000   0.00000   0.00000   0.00000
  6.96742   0.00000   0.00000   0.00000   0.00000
  7.01754   0.00000   0.00000   0.00000   0.00000
  7.06767   0.00000   0.00000   0.00000   0.00000
  7.11779   0.00000   0.00000   0.00000   0.00000
  7.16792   0.00000   0.00000   0.00000   0.00000
  7.21805   0.00000   0.00000   0.00000   0.00000
  7.26817   0.00000   0.00000   0.00000   0.00000
  7.31830   0.00000   0.00000   0.00000   0.00000
  7.36842   0.00000   0.00000   0.00000   0.00000
  7.41855   0.00000   0.00000   0.00000   0.00000
  7.46867   0.00000   0.00000   0.00000   0.00000
  7.51880   0.00000   0.00000   0.00000   0.00000