    3    3    1    1
  0.1706667E+03  0.8000000E-09  0.8000000E-09  0.8000000E-09  0.5000000E-15
  1.000000000000000E-004
  CAR 
 H2O                                     
      8     16     16
 
  0.1250000E+00  0.1250000E+00  0.1250000E+00  0.6250000E-01
    1      -23.126283   1.000000
    2      -11.077881   1.000000
    3       -8.892073   1.000000
    4       -6.698959   1.000000
    5       -2.097271   0.000000
    6       -0.406491   0.000000
    7        0.622970   0.000000
    8        1.363129   0.000000
    9        1.510767   0.000000
   10        2.079411   0.000000
   11        2.524448   0.000000
   12        2.644404   0.000000
   13        2.879216   0.000000
   14        3.202258   0.000000
   15        3.386096   0.000000
   16        3.482953   0.000000
 
  0.3750000E+00  0.1250000E+00  0.1250000E+00  0.6250000E-01
    1      -23.126300   1.000000
    2      -11.077721   1.000000
    3       -8.892549   1.000000
    4       -6.698779   1.000000
    5       -2.044379   0.000000
    6       -0.456012   0.000000
    7        0.687324   0.000000
    8        1.046222   0.000000
    9        1.718728   0.000000
   10        2.061928   0.000000
   11        2.320203   0.000000
   12        2.413837   0.000000
   13        3.042085   0.000000
   14        3.156302   0.000000
   15        3.332108   0.000000
   16        3.538113   0.000000
 
 -0.3750000E+00  0.1250000E+00  0.1250000E+00  0.6250000E-01
    1      -23.126241   1.000000
    2      -11.077820   1.000000
    3       -8.892257   1.000000
    4       -6.698764   1.000000
    5       -2.045564   0.000000
    6       -0.439593   0.000000
    7        0.591603   0.000000
    8        1.153780   0.000000
    9        1.771736   0.000000
   10        1.983575   0.000000
   11        2.297850   0.000000
   12        2.431861   0.000000
   13        2.933715   0.000000
   14        3.151628   0.000000
   15        3.490079   0.000000
   16        3.551079   0.000000
 
 -0.1250000E+00  0.1250000E+00  0.1250000E+00  0.6250000E-01
    1      -23.126266   1.000000
    2      -11.077843   1.000000
    3       -8.892256   1.000000
    4       -6.698958   1.000000
    5       -2.098492   0.000000
    6       -0.389281   0.000000
    7        0.560135   0.000000
    8        1.352709   0.000000
    9        1.797224   0.000000
   10        1.844409   0.000000
   11        2.461309   0.000000
   12        2.726248   0.000000
   13        2.851875   0.000000
   14        3.113559   0.000000
   15        3.282736   0.000000
   16        3.778946   0.000000
 
  0.1250000E+00  0.3750000E+00  0.1250000E+00  0.6250000E-01
    1      -23.126321   1.000000
    2      -11.077617   1.000000
    3       -8.892101   1.000000
    4       -6.699993   1.000000
    5       -2.066681   0.000000
    6       -0.382245   0.000000
    7        0.448705   0.000000
    8        1.343528   0.000000
    9        1.588906   0.000000
   10        2.093863   0.000000
   11        2.405993   0.000000
   12        2.580784   0.000000
   13        3.021302   0.000000
   14        3.100285   0.000000
   15        3.226561   0.000000
   16        3.601561   0.000000
 
  0.3750000E+00  0.3750000E+00  0.1250000E+00  0.6250000E-01
    1      -23.126427   1.000000
    2      -11.077839   1.000000
    3       -8.892386   1.000000
    4       -6.699954   1.000000
    5       -2.018173   0.000000
    6       -0.420857   0.000000
    7        0.683166   0.000000
    8        0.985542   0.000000
    9        1.506247   0.000000
   10        1.749141   0.000000
   11        2.482807   0.000000
   12        2.492262   0.000000
   13        2.905886   0.000000
   14        3.197376   0.000000
   15        3.471846   0.000000
   16        3.719786   0.000000
 
 -0.3750000E+00  0.3750000E+00  0.1250000E+00  0.6250000E-01
    1      -23.126413   1.000000
    2      -11.077805   1.000000
    3       -8.892359   1.000000
    4       -6.699958   1.000000
    5       -2.019347   0.000000
    6       -0.408910   0.000000
    7        0.660146   0.000000
    8        0.959202   0.000000
    9        1.479227   0.000000
   10        1.986828   0.000000
   11        2.251362   0.000000
   12        2.507374   0.000000
   13        2.858252   0.000000
   14        3.280834   0.000000
   15        3.474206   0.000000
   16        3.690200   0.000000
 
 -0.1250000E+00  0.3750000E+00  0.1250000E+00  0.6250000E-01
    1      -23.126307   1.000000
    2      -11.077605   1.000000
    3       -8.891904   1.000000
    4       -6.699996   1.000000
    5       -2.067626   0.000000
    6       -0.370769   0.000000
    7        0.441779   0.000000
    8        1.185535   0.000000
    9        1.983876   0.000000
   10        2.083108   0.000000
   11        2.283922   0.000000
   12        2.354385   0.000000
   13        2.906535   0.000000
   14        3.322847   0.000000
   15        3.393317   0.000000
   16        3.521207   0.000000
 
  0.1250000E+00  0.1250000E+00  0.3750000E+00  0.6250000E-01
    1      -23.126298   1.000000
    2      -11.077696   1.000000
    3       -8.892411   1.000000
    4       -6.698803   1.000000
    5       -2.032484   0.000000
    6       -0.510921   0.000000
    7        0.788008   0.000000
    8        1.045261   0.000000
    9        1.673636   0.000000
   10        2.017891   0.000000
   11        2.319763   0.000000
   12        2.431252   0.000000
   13        3.023206   0.000000
   14        3.159464   0.000000
   15        3.348563   0.000000
   16        3.512423   0.000000
 
  0.3750000E+00  0.1250000E+00  0.3750000E+00  0.6250000E-01
    1      -23.126310   1.000000
    2      -11.077959   1.000000
    3       -8.892732   1.000000
    4       -6.698528   1.000000
    5       -1.985151   0.000000
    6       -0.504683   0.000000
    7        0.783284   0.000000
    8        1.036847   0.000000
    9        1.473280   0.000000
   10        1.800184   0.000000
   11        2.176655   0.000000
   12        2.517520   0.000000
   13        2.682301   0.000000
   14        3.172574   0.000000
   15        3.575192   0.000000
   16        3.719692   0.000000
 
 -0.3750000E+00  0.1250000E+00  0.3750000E+00  0.6250000E-01
    1      -23.126335   1.000000
    2      -11.078060   1.000000
    3       -8.892507   1.000000
    4       -6.698544   1.000000
    5       -1.986487   0.000000
    6       -0.488040   0.000000
    7        0.637717   0.000000
    8        1.272075   0.000000
    9        1.521623   0.000000
   10        1.602050   0.000000
   11        2.233615   0.000000
   12        2.551514   0.000000
   13        2.600579   0.000000
   14        3.220724   0.000000
   15        3.625962   0.000000
   16        3.729383   0.000000
 
 -0.1250000E+00  0.1250000E+00  0.3750000E+00  0.6250000E-01
    1      -23.126255   1.000000
    2      -11.078024   1.000000
    3       -8.892081   1.000000
    4       -6.698785   1.000000
    5       -2.033760   0.000000
    6       -0.496224   0.000000
    7        0.670476   0.000000
    8        1.172538   0.000000
    9        1.727222   0.000000
   10        1.996460   0.000000
   11        2.291045   0.000000
   12        2.390008   0.000000
   13        2.887794   0.000000
   14        3.156760   0.000000
   15        3.479858   0.000000
   16        3.596291   0.000000
 
  0.1250000E+00  0.3750000E+00  0.3750000E+00  0.6250000E-01
    1      -23.126347   1.000000
    2      -11.078074   1.000000
    3       -8.892091   1.000000
    4       -6.699908   1.000000
    5       -2.006617   0.000000
    6       -0.470436   0.000000
    7        0.694505   0.000000
    8        1.098868   0.000000
    9        1.493130   0.000000
   10        1.676964   0.000000
   11        2.404932   0.000000
   12        2.521841   0.000000
   13        2.933532   0.000000
   14        3.201508   0.000000
   15        3.477438   0.000000
   16        3.702568   0.000000
 
  0.3750000E+00  0.3750000E+00  0.3750000E+00  0.6250000E-01
    1      -23.126699   1.000000
    2      -11.078555   1.000000
    3       -8.893053   1.000000
    4       -6.700381   1.000000
    5       -1.963098   0.000000
    6       -0.468764   0.000000
    7        0.913536   0.000000
    8        1.022424   0.000000
    9        1.387562   0.000000
   10        1.690749   0.000000
   11        1.872686   0.000000
   12        2.053714   0.000000
   13        2.480439   0.000000
   14        2.967114   0.000000
   15        4.253543   0.000000
   16        4.411559   0.000000
 
 -0.3750000E+00  0.3750000E+00  0.3750000E+00  0.6250000E-01
    1      -23.126698   1.000000
    2      -11.078452   1.000000
    3       -8.893179   1.000000
    4       -6.700405   1.000000
    5       -1.964495   0.000000
    6       -0.456477   0.000000
    7        0.823785   0.000000
    8        1.037179   0.000000
    9        1.563763   0.000000
   10        1.623764   0.000000
   11        1.824674   0.000000
   12        2.106612   0.000000
   13        2.432544   0.000000
   14        2.934552   0.000000
   15        4.160240   0.000000
   16        4.527014   0.000000
 
 -0.1250000E+00  0.3750000E+00  0.3750000E+00  0.6250000E-01
    1      -23.126339   1.000000
    2      -11.077907   1.000000
    3       -8.892154   1.000000
    4       -6.699927   1.000000
    5       -2.007806   0.000000
    6       -0.459508   0.000000
    7        0.677017   0.000000
    8        1.051653   0.000000
    9        1.449067   0.000000
   10        1.969837   0.000000
   11        2.208839   0.000000
   12        2.517604   0.000000
   13        2.812432   0.000000
   14        3.265362   0.000000
   15        3.516741   0.000000
   16        3.689371   0.000000
