  COHP#       atomMU       atomNU     distance     translation      ICOHP (at) eF   for spin  1
      1           H2           O1      1.21511       0   0   0           -5.56680 
      2           H3           O1      1.22000       0   0   0           -5.52681 
      3           H3           H2      1.91638       0   0   0            0.01645 
