       N       E                     dE             d eps       ncg     rms          rms(c)
DAV:   1    -0.125654975297E+02   -0.12565E+02   -0.10007E-03   672   0.106E-01    0.602E-02
DAV:   2    -0.125654323596E+02    0.65170E-04   -0.92594E-04   784   0.899E-02
   1 F= -.12565432E+02 E0= -.12565432E+02  d E =-.287241E-11
