<?xml version="1.0" encoding="ISO-8859-1"?>
<modeling>
 <generator>
  <i name="program" type="string">vasp </i>
  <i name="version" type="string">5.4.4.18Apr17-6-g9f103f2a35  </i>
  <i name="subversion" type="string">(build Jun 18 2020 10:23:20) complex            parallel </i>
  <i name="platform" type="string">IFC19_ompi3 </i>
  <i name="date" type="string">2022 02 09 </i>
  <i name="time" type="string">11:33:24 </i>
 </generator>
 <incar>
  <i type="string" name="SYSTEM"> H2O</i>
  <i type="string" name="PREC">normal</i>
  <i type="int" name="ISPIN">     1</i>
  <i type="int" name="ISMEAR">     0</i>
  <v type="int" name="KPOINT_BSE">    -1     0     0     0</v>
 </incar>
 <structure name="primitive_cell" >
  <crystal>
   <varray name="basis" >
    <v>       8.00000000       0.00000000       0.00000000 </v>
    <v>       0.00000000       8.00000000       0.00000000 </v>
    <v>       0.00000000       0.00000000       8.00000000 </v>
   </varray>
   <i name="volume">    512.00000000 </i>
   <varray name="rec_basis" >
    <v>       0.12500000       0.00000000       0.00000000 </v>
    <v>       0.00000000       0.12500000       0.00000000 </v>
    <v>       0.00000000       0.00000000       0.12500000 </v>
   </varray>
  </crystal>
  <varray name="positions" >
   <v>      -0.50000000      -0.50000000      -0.50000000 </v>
   <v>      -0.35250000      -0.50000000      -0.46375000 </v>
   <v>      -0.50000000      -0.50000000       0.34750000 </v>
  </varray>
 </structure>
 <varray name="primitive_index" >
  <v type="int" >        1 </v>
  <v type="int" >        2 </v>
  <v type="int" >        3 </v>
 </varray>
 <kpoints>
  <generation param="Monkhorst-Pack">
   <v type="int" name="divisions">       4        4        4 </v>
   <v name="usershift">      0.00000000       0.00000000       0.00000000 </v>
   <v name="genvec1">      0.25000000       0.00000000       0.00000000 </v>
   <v name="genvec2">      0.00000000       0.25000000       0.00000000 </v>
   <v name="genvec3">      0.00000000       0.00000000       0.25000000 </v>
   <v name="shift">      0.50000000       0.50000000       0.50000000 </v>
  </generation>
  <varray name="kpointlist" >
   <v>       0.12500000       0.12500000       0.12500000 </v>
   <v>       0.37500000       0.12500000       0.12500000 </v>
   <v>      -0.37500000       0.12500000       0.12500000 </v>
   <v>      -0.12500000       0.12500000       0.12500000 </v>
   <v>       0.12500000       0.37500000       0.12500000 </v>
   <v>       0.37500000       0.37500000       0.12500000 </v>
   <v>      -0.37500000       0.37500000       0.12500000 </v>
   <v>      -0.12500000       0.37500000       0.12500000 </v>
   <v>       0.12500000       0.12500000       0.37500000 </v>
   <v>       0.37500000       0.12500000       0.37500000 </v>
   <v>      -0.37500000       0.12500000       0.37500000 </v>
   <v>      -0.12500000       0.12500000       0.37500000 </v>
   <v>       0.12500000       0.37500000       0.37500000 </v>
   <v>       0.37500000       0.37500000       0.37500000 </v>
   <v>      -0.37500000       0.37500000       0.37500000 </v>
   <v>      -0.12500000       0.37500000       0.37500000 </v>
  </varray>
  <varray name="weights" >
   <v>       0.06250000 </v>
   <v>       0.06250000 </v>
   <v>       0.06250000 </v>
   <v>       0.06250000 </v>
   <v>       0.06250000 </v>
   <v>       0.06250000 </v>
   <v>       0.06250000 </v>
   <v>       0.06250000 </v>
   <v>       0.06250000 </v>
   <v>       0.06250000 </v>
   <v>       0.06250000 </v>
   <v>       0.06250000 </v>
   <v>       0.06250000 </v>
   <v>       0.06250000 </v>
   <v>       0.06250000 </v>
   <v>       0.06250000 </v>
  </varray>
 </kpoints>
 <parameters>
  <separator name="general" >
   <i type="string" name="SYSTEM">H2O</i>
   <i type="logical" name="LCOMPAT"> F  </i>
  </separator>
  <separator name="electronic" >
   <i type="string" name="PREC">normal</i>
   <i name="ENMAX">    400.00000000</i>
   <i name="ENAUG">    605.39200000</i>
   <i name="EDIFF">      0.00010000</i>
   <i type="int" name="IALGO">    38</i>
   <i type="int" name="IWAVPR">    10</i>
   <i type="int" name="NBANDS">    16</i>
   <i name="NELECT">      8.00000000</i>
   <i type="int" name="TURBO">     0</i>
   <i type="int" name="IRESTART">     0</i>
   <i type="int" name="NREBOOT">     0</i>
   <i type="int" name="NMIN">     0</i>
   <i name="EREF">      0.00000000</i>
   <separator name="electronic smearing" >
    <i type="int" name="ISMEAR">     0</i>
    <i name="SIGMA">      0.20000000</i>
    <i name="KSPACING">      0.50000000</i>
    <i type="logical" name="KGAMMA"> T  </i>
   </separator>
   <separator name="electronic projectors" >
    <i type="logical" name="LREAL"> F  </i>
    <v name="ROPT">      0.00000000      0.00000000</v>
    <i type="int" name="LMAXPAW">  -100</i>
    <i type="int" name="LMAXMIX">     2</i>
    <i type="logical" name="NLSPLINE"> F  </i>
   </separator>
   <separator name="electronic startup" >
    <i type="int" name="ISTART">     1</i>
    <i type="int" name="ICHARG">     0</i>
    <i type="int" name="INIWAV">     1</i>
   </separator>
   <separator name="electronic spin" >
    <i type="int" name="ISPIN">     1</i>
    <i type="logical" name="LNONCOLLINEAR"> F  </i>
    <v name="MAGMOM">      1.00000000      1.00000000      1.00000000</v>
    <i name="NUPDOWN">     -1.00000000</i>
    <i type="logical" name="LSORBIT"> F  </i>
    <v name="SAXIS">      0.00000000      0.00000000      1.00000000</v>
    <i type="logical" name="LSPIRAL"> F  </i>
    <v name="QSPIRAL">      0.00000000      0.00000000      0.00000000</v>
    <i type="logical" name="LZEROZ"> F  </i>
   </separator>
   <separator name="electronic exchange-correlation" >
    <i type="logical" name="LASPH"> F  </i>
    <i type="logical" name="LMETAGGA"> F  </i>
   </separator>
   <separator name="electronic convergence" >
    <i type="int" name="NELM">    60</i>
    <i type="int" name="NELMDL">     0</i>
    <i type="int" name="NELMIN">     2</i>
    <i name="ENINI">    400.00000000</i>
    <separator name="electronic convergence detail" >
     <i type="logical" name="LDIAG"> T  </i>
     <i type="logical" name="LSUBROT"> F  </i>
     <i name="WEIMIN">      0.00000000</i>
     <i name="EBREAK">      0.00000156</i>
     <i name="DEPER">      0.30000000</i>
     <i type="int" name="NRMM">     4</i>
     <i name="TIME">      0.40000000</i>
    </separator>
   </separator>
   <separator name="electronic mixer" >
    <i name="AMIX">      0.40000000</i>
    <i name="BMIX">      1.00000000</i>
    <i name="AMIN">      0.10000000</i>
    <i name="AMIX_MAG">      1.60000000</i>
    <i name="BMIX_MAG">      1.00000000</i>
    <separator name="electronic mixer details" >
     <i type="int" name="IMIX">     4</i>
     <i type="logical" name="MIXFIRST"> F  </i>
     <i type="int" name="MAXMIX">   -45</i>
     <i name="WC">    100.00000000</i>
     <i type="int" name="INIMIX">     1</i>
     <i type="int" name="MIXPRE">     1</i>
     <i type="int" name="MREMOVE">     5</i>
    </separator>
   </separator>
   <separator name="electronic dipolcorrection" >
    <i type="logical" name="LDIPOL"> F  </i>
    <i type="logical" name="LMONO"> F  </i>
    <i type="int" name="IDIPOL">     0</i>
    <i name="EPSILON">      1.00000000</i>
    <v name="DIPOL">   -100.00000000   -100.00000000   -100.00000000</v>
    <i name="EFIELD">      0.00000000</i>
   </separator>
  </separator>
  <separator name="grids" >
   <i type="int" name="NGX">    40</i>
   <i type="int" name="NGY">    40</i>
   <i type="int" name="NGZ">    40</i>
   <i type="int" name="NGXF">    80</i>
   <i type="int" name="NGYF">    80</i>
   <i type="int" name="NGZF">    80</i>
   <i type="logical" name="ADDGRID"> F  </i>
  </separator>
  <separator name="ionic" >
   <i type="int" name="NSW">     0</i>
   <i type="int" name="IBRION">    -1</i>
   <i type="int" name="MDALGO">     0</i>
   <i type="int" name="ISIF">     2</i>
   <i name="PSTRESS">      0.00000000</i>
   <i name="EDIFFG">      0.00100000</i>
   <i type="int" name="NFREE">     0</i>
   <i name="POTIM">      0.50000000</i>
   <i name="SMASS">     -3.00000000</i>
   <i name="SCALEE">      1.00000000</i>
  </separator>
  <separator name="ionic md" >
   <i name="TEBEG">      0.00010000</i>
   <i name="TEEND">      0.00010000</i>
   <i type="int" name="NBLOCK">     1</i>
   <i type="int" name="KBLOCK">     1</i>
   <i type="int" name="NPACO">   256</i>
   <i name="APACO">     16.00000000</i>
  </separator>
  <separator name="symmetry" >
   <i type="int" name="ISYM">     2</i>
   <i name="SYMPREC">      0.00001000</i>
  </separator>
  <separator name="dos" >
   <i type="int" name="LORBIT">     0</i>
   <v name="RWIGS">     -1.00000000     -1.00000000</v>
   <i type="int" name="NEDOS">   301</i>
   <i name="EMIN">     10.00000000</i>
   <i name="EMAX">    -10.00000000</i>
   <i name="EFERMI">      0.00000000</i>
  </separator>
  <separator name="writing" >
   <i type="int" name="NWRITE">     2</i>
   <i type="logical" name="LWAVE"> T  </i>
   <i type="logical" name="LDOWNSAMPLE"> F  </i>
   <i type="logical" name="LCHARG"> T  </i>
   <i type="logical" name="LPARD"> F  </i>
   <i type="logical" name="LVTOT"> F  </i>
   <i type="logical" name="LVHAR"> F  </i>
   <i type="logical" name="LELF"> F  </i>
   <i type="logical" name="LOPTICS"> F  </i>
   <v name="STM">      0.00000000      0.00000000      0.00000000      0.00000000      0.00000000      0.00000000      0.00000000</v>
  </separator>
  <separator name="performance" >
   <i type="int" name="NPAR">    16</i>
   <i type="int" name="NSIM">     4</i>
   <i type="int" name="NBLK">    -1</i>
   <i type="logical" name="LPLANE"> T  </i>
   <i type="logical" name="LSCALAPACK"> T  </i>
   <i type="logical" name="LSCAAWARE"> F  </i>
   <i type="logical" name="LSCALU"> F  </i>
   <i type="logical" name="LASYNC"> F  </i>
   <i type="logical" name="LORBITALREAL"> F  </i>
  </separator>
  <separator name="miscellaneous" >
   <i type="int" name="IDIOT">     3</i>
   <i type="int" name="ISPECIAL">     0</i>
   <i type="logical" name="LMUSIC"> F  </i>
   <v name="POMASS">     16.00000000      1.00000000</v>
   <v name="DARWINR">      0.00000000      0.00000000</v>
   <v name="DARWINV">      1.00000000      1.00000000</v>
   <i type="logical" name="LCORR"> T  </i>
  </separator>
  <i type="logical" name="GGA_COMPAT"> T  </i>
  <i type="logical" name="LBERRY"> F  </i>
  <i type="int" name="ICORELEVEL">     0</i>
  <i type="logical" name="LDAU"> F  </i>
  <i type="int" name="I_CONSTRAINED_M">     0</i>
  <separator name="electronic exchange-correlation" >
   <i type="string" name="GGA">--</i>
   <i type="int" name="VOSKOWN">     0</i>
   <i type="logical" name="LHFCALC"> F  </i>
   <i type="string" name="PRECFOCK"></i>
   <i type="logical" name="LSYMGRAD"> F  </i>
   <i type="logical" name="LHFONE"> F  </i>
   <i type="logical" name="LRHFCALC"> F  </i>
   <i type="logical" name="LTHOMAS"> F  </i>
   <i type="logical" name="LMODELHF"> F  </i>
   <i name="ENCUT4O">     -1.00000000</i>
   <i type="int" name="EXXOEP">     0</i>
   <i type="int" name="FOURORBIT">     0</i>
   <i name="AEXX">      0.00000000</i>
   <i name="HFALPHA">      0.00000000</i>
   <i name="MCALPHA">      0.00000000</i>
   <i name="ALDAX">      1.00000000</i>
   <i name="AGGAX">      1.00000000</i>
   <i name="ALDAC">      1.00000000</i>
   <i name="AGGAC">      1.00000000</i>
   <i type="int" name="NKREDX">     1</i>
   <i type="int" name="NKREDY">     1</i>
   <i type="int" name="NKREDZ">     1</i>
   <i type="logical" name="SHIFTRED"> F  </i>
   <i type="logical" name="ODDONLY"> F  </i>
   <i type="logical" name="EVENONLY"> F  </i>
   <i type="int" name="LMAXFOCK">     0</i>
   <i type="int" name="NMAXFOCKAE">     0</i>
   <i type="logical" name="LFOCKAEDFT"> F  </i>
   <i name="HFSCREEN">      0.00000000</i>
   <i name="HFSCREENC">      0.00000000</i>
   <i type="int" name="NBANDSGWLOW">     0</i>
  </separator>
  <separator name="vdW DFT" >
   <i type="logical" name="LUSE_VDW"> F  </i>
   <i name="Zab_VDW">     -0.84910000</i>
   <i name="PARAM1">      0.12340000</i>
   <i name="PARAM2">      1.00000000</i>
   <i name="PARAM3">      0.00000000</i>
  </separator>
  <separator name="model GW" >
   <i type="int" name="MODEL_GW">     0</i>
   <i name="MODEL_EPS0">    102.40000000</i>
   <i name="MODEL_ALPHA">      1.00000000</i>
  </separator>
  <separator name="linear response parameters" >
   <i type="logical" name="LEPSILON"> F  </i>
   <i type="logical" name="LRPA"> F  </i>
   <i type="logical" name="LNABLA"> F  </i>
   <i type="logical" name="LVEL"> F  </i>
   <i type="int" name="KINTER">     0</i>
   <i name="CSHIFT">      0.10000000</i>
   <i name="OMEGAMAX">     -1.00000000</i>
   <i name="DEG_THRESHOLD">      0.00200000</i>
   <i name="RTIME">     -0.10000000</i>
   <i name="WPLASMAI">      0.00000000</i>
   <v name="DFIELD">      0.00000000      0.00000000      0.00000000</v>
   <v name="WPLASMA">      0.00000000      0.00000000      0.00000000      0.00000000      0.00000000      0.00000000      0.00000000      0.00000000      0.00000000</v>
  </separator>
  <separator name="orbital magnetization" >
   <i type="logical" name="NUCIND"> F  </i>
   <v name="MAGPOS">      0.00000000      0.00000000      0.00000000</v>
   <i type="logical" name="LNICSALL"> T  </i>
   <i type="logical" name="ORBITALMAG"> F  </i>
   <i type="logical" name="LMAGBLOCH"> F  </i>
   <i type="logical" name="LCHIMAG"> F  </i>
   <i type="logical" name="LGAUGE"> T  </i>
   <i type="int" name="MAGATOM">     0</i>
   <v name="MAGDIPOL">      0.00000000      0.00000000      0.00000000</v>
   <v name="AVECCONST">      0.00000000      0.00000000      0.00000000</v>
  </separator>
  <separator name="response functions" >
   <i type="logical" name="LADDER"> F  </i>
   <i type="logical" name="LRPAFORCE"> F  </i>
   <i type="logical" name="LFXC"> F  </i>
   <i type="logical" name="LHARTREE"> T  </i>
   <i type="int" name="IBSE">     0</i>
   <v type="int" name="KPOINT">    -1     0     0     0</v>
   <i type="logical" name="LTCTE"> F  </i>
   <i type="logical" name="LTETE"> F  </i>
   <i type="logical" name="LTRIPLET"> F  </i>
   <i type="logical" name="LFXCEPS"> F  </i>
   <i type="logical" name="LFXHEG"> F  </i>
   <i type="int" name="NATURALO">     2</i>
   <i type="logical" name="L2ORDER"> F  </i>
   <i type="logical" name="LMP2LT"> F  </i>
   <i type="logical" name="LUSEW"> F  </i>
   <i name="ENCUTGW">     -2.00000000</i>
   <i name="ENCUTGWSOFT">     -2.00000000</i>
   <i name="ENCUTLF">     -1.00000000</i>
   <i type="int" name="LMAXMP2">    -1</i>
   <i name="SCISSOR">      0.00000000</i>
   <i type="int" name="NOMEGA">     0</i>
   <i type="int" name="NOMEGAR">     0</i>
   <i type="int" name="NBANDSGW">    -1</i>
   <i type="int" name="NBANDSO">    -1</i>
   <i type="int" name="NBANDSV">    -1</i>
   <i type="int" name="NELM">     1</i>
   <i type="int" name="NELMHF">     1</i>
   <i type="int" name="DIM">     3</i>
   <i type="int" name="ANTIRES">     0</i>
   <i name="OMEGAMAX">    -30.00000000</i>
   <i name="OMEGAMIN">    -30.00000000</i>
   <i name="OMEGATL">   -200.00000000</i>
   <i type="int" name="OMEGAGRID">   140</i>
   <i name="CSHIFT">     -0.10000000</i>
   <i type="logical" name="SELFENERGY"> F  </i>
   <i type="logical" name="LSPECTRAL"> F  </i>
   <i type="logical" name="LSPECTRALGW"> F  </i>
   <i type="logical" name="LSINGLES"> F  </i>
   <i type="logical" name="LFERMIGW"> F  </i>
   <i type="logical" name="ODDONLYGW"> F  </i>
   <i type="logical" name="EVENONLYGW"> F  </i>
   <i type="int" name="NKREDLFX">     1</i>
   <i type="int" name="NKREDLFY">     1</i>
   <i type="int" name="NKREDLFZ">     1</i>
   <i type="int" name="MAXMEM">  2800</i>
   <i type="int" name="TELESCOPE">     0</i>
   <i type="int" name="TAUPAR">     1</i>
   <i type="int" name="OMEGAPAR">    -1</i>
   <i name="LAMBDA">      1.00000000</i>
  </separator>
  <separator name="External order field" >
   <i name="OFIELD_KAPPA">      0.00000000</i>
   <v name="OFIELD_K">      0.00000000      0.00000000      0.00000000</v>
   <i name="OFIELD_Q6_NEAR">      0.00000000</i>
   <i name="OFIELD_Q6_FAR">      0.00000000</i>
   <i name="OFIELD_A">      0.00000000</i>
  </separator>
 </parameters>
 <atominfo>
  <atoms>       3 </atoms>
  <types>       2 </types>
  <array name="atoms" >
   <dimension dim="1">ion</dimension>
   <field type="string">element</field>
   <field type="int">atomtype</field>
   <set>
    <rc><c>O </c><c>   1</c></rc>
    <rc><c>H </c><c>   2</c></rc>
    <rc><c>H </c><c>   2</c></rc>
   </set>
  </array>
  <array name="atomtypes" >
   <dimension dim="1">type</dimension>
   <field type="int">atomspertype</field>
   <field type="string">element</field>
   <field>mass</field>
   <field>valence</field>
   <field type="string">pseudopotential</field>
   <set>
    <rc><c>   1</c><c>O </c><c>     16.00000000</c><c>      6.00000000</c><c>  PAW O                                 </c></rc>
    <rc><c>   2</c><c>H </c><c>      1.00000000</c><c>      1.00000000</c><c>  PAW H                                 </c></rc>
   </set>
  </array>
 </atominfo>
 <structure name="initialpos" >
  <crystal>
   <varray name="basis" >
    <v>       8.00000000       0.00000000       0.00000000 </v>
    <v>       0.00000000       8.00000000       0.00000000 </v>
    <v>       0.00000000       0.00000000       8.00000000 </v>
   </varray>
   <i name="volume">    512.00000000 </i>
   <varray name="rec_basis" >
    <v>       0.12500000       0.00000000       0.00000000 </v>
    <v>       0.00000000       0.12500000       0.00000000 </v>
    <v>       0.00000000       0.00000000       0.12500000 </v>
   </varray>
  </crystal>
  <varray name="positions" >
   <v>       0.50000000       0.50000000       0.50000000 </v>
   <v>       0.64750000       0.50000000       0.53625000 </v>
   <v>       0.50000000       0.50000000       0.34750000 </v>
  </varray>
 </structure>
 <calculation>
  <scstep>
   <time name="dav">    0.29    0.29</time>
   <time name="total">    0.34    0.34</time>
   <energy>
    <i name="alphaZ">      0.43521826 </i>
    <i name="ewald">    -12.69777464 </i>
    <i name="hartreedc">   -389.44880121 </i>
    <i name="XCdc">     32.61623325 </i>
    <i name="pawpsdc">    286.37194720 </i>
    <i name="pawaedc">   -288.36146627 </i>
    <i name="eentropy">     -0.00000000 </i>
    <i name="bandstr">    -99.43605543 </i>
    <i name="atom">    457.95520130 </i>
    <i name="e_fr_energy">    -12.56549753 </i>
    <i name="e_wo_entrp">    -12.56549753 </i>
    <i name="e_0_energy">    -12.56549753 </i>
   </energy>
  </scstep>
  <scstep>
   <time name="dav">    0.33    0.33</time>
   <time name="total">    0.35    0.35</time>
   <energy>
    <i name="alphaZ">      0.43521826 </i>
    <i name="ewald">    -12.69777464 </i>
    <i name="hartreedc">   -389.28656103 </i>
    <i name="XCdc">     32.60736950 </i>
    <i name="pawpsdc">    286.10087534 </i>
    <i name="pawaedc">   -288.08758263 </i>
    <i name="eentropy">     -0.00000000 </i>
    <i name="bandstr">    -99.59217846 </i>
    <i name="atom">    457.95520130 </i>
    <i name="e_fr_energy">    -12.56543236 </i>
    <i name="e_wo_entrp">    -12.56543236 </i>
    <i name="e_0_energy">    -12.56543236 </i>
   </energy>
  </scstep>
  <structure>
   <crystal>
    <varray name="basis" >
     <v>       8.00000000       0.00000000       0.00000000 </v>
     <v>       0.00000000       8.00000000       0.00000000 </v>
     <v>       0.00000000       0.00000000       8.00000000 </v>
    </varray>
    <i name="volume">    512.00000000 </i>
    <varray name="rec_basis" >
     <v>       0.12500000       0.00000000       0.00000000 </v>
     <v>       0.00000000       0.12500000       0.00000000 </v>
     <v>       0.00000000       0.00000000       0.12500000 </v>
    </varray>
   </crystal>
   <varray name="positions" >
    <v>       0.50000000       0.50000000       0.50000000 </v>
    <v>       0.64750000       0.50000000       0.53625000 </v>
    <v>       0.50000000       0.50000000       0.34750000 </v>
   </varray>
  </structure>
  <varray name="forces" >
   <v>       4.70243697       0.00000000      -3.72050773 </v>
   <v>      -5.10382586       0.00000000      -1.67348235 </v>
   <v>       0.40138889       0.00000000       5.39399007 </v>
  </varray>
  <varray name="stress" >
   <v>     -20.72658847       0.00000000      -6.02875138 </v>
   <v>       0.00000000      -2.54993391       0.00000000 </v>
   <v>      -6.02875138       0.00000000     -23.87800918 </v>
  </varray>
  <energy>
   <i name="e_fr_energy">    -12.56543236 </i>
   <i name="e_wo_entrp">    -12.56543236 </i>
   <i name="e_0_energy">     -0.00000000 </i>
  </energy>
  <time name="totalsc">    1.97    2.24</time>
  <eigenvalues>
   <array>
    <dimension dim="1">band</dimension>
    <dimension dim="2">kpoint</dimension>
    <dimension dim="3">spin</dimension>
    <field>eigene</field>
    <field>occ</field>
    <set>
     <set comment="spin 1">
      <set comment="kpoint 1">
       <r>  -23.1263    1.0000 </r>
       <r>  -11.0779    1.0000 </r>
       <r>   -8.8921    1.0000 </r>
       <r>   -6.6990    1.0000 </r>
       <r>   -2.0973    0.0000 </r>
       <r>   -0.4065    0.0000 </r>
       <r>    0.6230    0.0000 </r>
       <r>    1.3631    0.0000 </r>
       <r>    1.5108    0.0000 </r>
       <r>    2.0794    0.0000 </r>
       <r>    2.5244    0.0000 </r>
       <r>    2.6444    0.0000 </r>
       <r>    2.8792    0.0000 </r>
       <r>    3.2023    0.0000 </r>
       <r>    3.3861    0.0000 </r>
       <r>    3.4830    0.0000 </r>
      </set>
      <set comment="kpoint 2">
       <r>  -23.1263    1.0000 </r>
       <r>  -11.0777    1.0000 </r>
       <r>   -8.8925    1.0000 </r>
       <r>   -6.6988    1.0000 </r>
       <r>   -2.0444    0.0000 </r>
       <r>   -0.4560    0.0000 </r>
       <r>    0.6873    0.0000 </r>
       <r>    1.0462    0.0000 </r>
       <r>    1.7187    0.0000 </r>
       <r>    2.0619    0.0000 </r>
       <r>    2.3202    0.0000 </r>
       <r>    2.4138    0.0000 </r>
       <r>    3.0421    0.0000 </r>
       <r>    3.1563    0.0000 </r>
       <r>    3.3321    0.0000 </r>
       <r>    3.5381    0.0000 </r>
      </set>
      <set comment="kpoint 3">
       <r>  -23.1262    1.0000 </r>
       <r>  -11.0778    1.0000 </r>
       <r>   -8.8923    1.0000 </r>
       <r>   -6.6988    1.0000 </r>
       <r>   -2.0456    0.0000 </r>
       <r>   -0.4396    0.0000 </r>
       <r>    0.5916    0.0000 </r>
       <r>    1.1538    0.0000 </r>
       <r>    1.7717    0.0000 </r>
       <r>    1.9836    0.0000 </r>
       <r>    2.2979    0.0000 </r>
       <r>    2.4319    0.0000 </r>
       <r>    2.9337    0.0000 </r>
       <r>    3.1516    0.0000 </r>
       <r>    3.4901    0.0000 </r>
       <r>    3.5511    0.0000 </r>
      </set>
      <set comment="kpoint 4">
       <r>  -23.1263    1.0000 </r>
       <r>  -11.0778    1.0000 </r>
       <r>   -8.8923    1.0000 </r>
       <r>   -6.6990    1.0000 </r>
       <r>   -2.0985    0.0000 </r>
       <r>   -0.3893    0.0000 </r>
       <r>    0.5601    0.0000 </r>
       <r>    1.3527    0.0000 </r>
       <r>    1.7972    0.0000 </r>
       <r>    1.8444    0.0000 </r>
       <r>    2.4613    0.0000 </r>
       <r>    2.7262    0.0000 </r>
       <r>    2.8519    0.0000 </r>
       <r>    3.1136    0.0000 </r>
       <r>    3.2827    0.0000 </r>
       <r>    3.7789    0.0000 </r>
      </set>
      <set comment="kpoint 5">
       <r>  -23.1263    1.0000 </r>
       <r>  -11.0776    1.0000 </r>
       <r>   -8.8921    1.0000 </r>
       <r>   -6.7000    1.0000 </r>
       <r>   -2.0667    0.0000 </r>
       <r>   -0.3822    0.0000 </r>
       <r>    0.4487    0.0000 </r>
       <r>    1.3435    0.0000 </r>
       <r>    1.5889    0.0000 </r>
       <r>    2.0939    0.0000 </r>
       <r>    2.4060    0.0000 </r>
       <r>    2.5808    0.0000 </r>
       <r>    3.0213    0.0000 </r>
       <r>    3.1003    0.0000 </r>
       <r>    3.2266    0.0000 </r>
       <r>    3.6016    0.0000 </r>
      </set>
      <set comment="kpoint 6">
       <r>  -23.1264    1.0000 </r>
       <r>  -11.0778    1.0000 </r>
       <r>   -8.8924    1.0000 </r>
       <r>   -6.7000    1.0000 </r>
       <r>   -2.0182    0.0000 </r>
       <r>   -0.4209    0.0000 </r>
       <r>    0.6832    0.0000 </r>
       <r>    0.9855    0.0000 </r>
       <r>    1.5062    0.0000 </r>
       <r>    1.7491    0.0000 </r>
       <r>    2.4828    0.0000 </r>
       <r>    2.4923    0.0000 </r>
       <r>    2.9059    0.0000 </r>
       <r>    3.1974    0.0000 </r>
       <r>    3.4718    0.0000 </r>
       <r>    3.7198    0.0000 </r>
      </set>
      <set comment="kpoint 7">
       <r>  -23.1264    1.0000 </r>
       <r>  -11.0778    1.0000 </r>
       <r>   -8.8924    1.0000 </r>
       <r>   -6.7000    1.0000 </r>
       <r>   -2.0193    0.0000 </r>
       <r>   -0.4089    0.0000 </r>
       <r>    0.6601    0.0000 </r>
       <r>    0.9592    0.0000 </r>
       <r>    1.4792    0.0000 </r>
       <r>    1.9868    0.0000 </r>
       <r>    2.2514    0.0000 </r>
       <r>    2.5074    0.0000 </r>
       <r>    2.8583    0.0000 </r>
       <r>    3.2808    0.0000 </r>
       <r>    3.4742    0.0000 </r>
       <r>    3.6902    0.0000 </r>
      </set>
      <set comment="kpoint 8">
       <r>  -23.1263    1.0000 </r>
       <r>  -11.0776    1.0000 </r>
       <r>   -8.8919    1.0000 </r>
       <r>   -6.7000    1.0000 </r>
       <r>   -2.0676    0.0000 </r>
       <r>   -0.3708    0.0000 </r>
       <r>    0.4418    0.0000 </r>
       <r>    1.1855    0.0000 </r>
       <r>    1.9839    0.0000 </r>
       <r>    2.0831    0.0000 </r>
       <r>    2.2839    0.0000 </r>
       <r>    2.3544    0.0000 </r>
       <r>    2.9065    0.0000 </r>
       <r>    3.3228    0.0000 </r>
       <r>    3.3933    0.0000 </r>
       <r>    3.5212    0.0000 </r>
      </set>
      <set comment="kpoint 9">
       <r>  -23.1263    1.0000 </r>
       <r>  -11.0777    1.0000 </r>
       <r>   -8.8924    1.0000 </r>
       <r>   -6.6988    1.0000 </r>
       <r>   -2.0325    0.0000 </r>
       <r>   -0.5109    0.0000 </r>
       <r>    0.7880    0.0000 </r>
       <r>    1.0453    0.0000 </r>
       <r>    1.6736    0.0000 </r>
       <r>    2.0179    0.0000 </r>
       <r>    2.3198    0.0000 </r>
       <r>    2.4313    0.0000 </r>
       <r>    3.0232    0.0000 </r>
       <r>    3.1595    0.0000 </r>
       <r>    3.3486    0.0000 </r>
       <r>    3.5124    0.0000 </r>
      </set>
      <set comment="kpoint 10">
       <r>  -23.1263    1.0000 </r>
       <r>  -11.0780    1.0000 </r>
       <r>   -8.8927    1.0000 </r>
       <r>   -6.6985    1.0000 </r>
       <r>   -1.9852    0.0000 </r>
       <r>   -0.5047    0.0000 </r>
       <r>    0.7833    0.0000 </r>
       <r>    1.0368    0.0000 </r>
       <r>    1.4733    0.0000 </r>
       <r>    1.8002    0.0000 </r>
       <r>    2.1767    0.0000 </r>
       <r>    2.5175    0.0000 </r>
       <r>    2.6823    0.0000 </r>
       <r>    3.1726    0.0000 </r>
       <r>    3.5752    0.0000 </r>
       <r>    3.7197    0.0000 </r>
      </set>
      <set comment="kpoint 11">
       <r>  -23.1263    1.0000 </r>
       <r>  -11.0781    1.0000 </r>
       <r>   -8.8925    1.0000 </r>
       <r>   -6.6985    1.0000 </r>
       <r>   -1.9865    0.0000 </r>
       <r>   -0.4880    0.0000 </r>
       <r>    0.6377    0.0000 </r>
       <r>    1.2721    0.0000 </r>
       <r>    1.5216    0.0000 </r>
       <r>    1.6021    0.0000 </r>
       <r>    2.2336    0.0000 </r>
       <r>    2.5515    0.0000 </r>
       <r>    2.6006    0.0000 </r>
       <r>    3.2207    0.0000 </r>
       <r>    3.6260    0.0000 </r>
       <r>    3.7294    0.0000 </r>
      </set>
      <set comment="kpoint 12">
       <r>  -23.1263    1.0000 </r>
       <r>  -11.0780    1.0000 </r>
       <r>   -8.8921    1.0000 </r>
       <r>   -6.6988    1.0000 </r>
       <r>   -2.0338    0.0000 </r>
       <r>   -0.4962    0.0000 </r>
       <r>    0.6705    0.0000 </r>
       <r>    1.1725    0.0000 </r>
       <r>    1.7272    0.0000 </r>
       <r>    1.9965    0.0000 </r>
       <r>    2.2910    0.0000 </r>
       <r>    2.3900    0.0000 </r>
       <r>    2.8878    0.0000 </r>
       <r>    3.1568    0.0000 </r>
       <r>    3.4799    0.0000 </r>
       <r>    3.5963    0.0000 </r>
      </set>
      <set comment="kpoint 13">
       <r>  -23.1263    1.0000 </r>
       <r>  -11.0781    1.0000 </r>
       <r>   -8.8921    1.0000 </r>
       <r>   -6.6999    1.0000 </r>
       <r>   -2.0066    0.0000 </r>
       <r>   -0.4704    0.0000 </r>
       <r>    0.6945    0.0000 </r>
       <r>    1.0989    0.0000 </r>
       <r>    1.4931    0.0000 </r>
       <r>    1.6770    0.0000 </r>
       <r>    2.4049    0.0000 </r>
       <r>    2.5218    0.0000 </r>
       <r>    2.9335    0.0000 </r>
       <r>    3.2015    0.0000 </r>
       <r>    3.4774    0.0000 </r>
       <r>    3.7026    0.0000 </r>
      </set>
      <set comment="kpoint 14">
       <r>  -23.1267    1.0000 </r>
       <r>  -11.0786    1.0000 </r>
       <r>   -8.8931    1.0000 </r>
       <r>   -6.7004    1.0000 </r>
       <r>   -1.9631    0.0000 </r>
       <r>   -0.4688    0.0000 </r>
       <r>    0.9135    0.0000 </r>
       <r>    1.0224    0.0000 </r>
       <r>    1.3876    0.0000 </r>
       <r>    1.6907    0.0000 </r>
       <r>    1.8727    0.0000 </r>
       <r>    2.0537    0.0000 </r>
       <r>    2.4804    0.0000 </r>
       <r>    2.9671    0.0000 </r>
       <r>    4.2535    0.0000 </r>
       <r>    4.4116    0.0000 </r>
      </set>
      <set comment="kpoint 15">
       <r>  -23.1267    1.0000 </r>
       <r>  -11.0785    1.0000 </r>
       <r>   -8.8932    1.0000 </r>
       <r>   -6.7004    1.0000 </r>
       <r>   -1.9645    0.0000 </r>
       <r>   -0.4565    0.0000 </r>
       <r>    0.8238    0.0000 </r>
       <r>    1.0372    0.0000 </r>
       <r>    1.5638    0.0000 </r>
       <r>    1.6238    0.0000 </r>
       <r>    1.8247    0.0000 </r>
       <r>    2.1066    0.0000 </r>
       <r>    2.4325    0.0000 </r>
       <r>    2.9346    0.0000 </r>
       <r>    4.1602    0.0000 </r>
       <r>    4.5270    0.0000 </r>
      </set>
      <set comment="kpoint 16">
       <r>  -23.1263    1.0000 </r>
       <r>  -11.0779    1.0000 </r>
       <r>   -8.8922    1.0000 </r>
       <r>   -6.6999    1.0000 </r>
       <r>   -2.0078    0.0000 </r>
       <r>   -0.4595    0.0000 </r>
       <r>    0.6770    0.0000 </r>
       <r>    1.0517    0.0000 </r>
       <r>    1.4491    0.0000 </r>
       <r>    1.9698    0.0000 </r>
       <r>    2.2088    0.0000 </r>
       <r>    2.5176    0.0000 </r>
       <r>    2.8124    0.0000 </r>
       <r>    3.2654    0.0000 </r>
       <r>    3.5167    0.0000 </r>
       <r>    3.6894    0.0000 </r>
      </set>
     </set>
    </set>
   </array>
  </eigenvalues>
  <separator name="orbital magnetization" >
   <v name="MAGDIPOLOUT">      0.00000000      0.00000000      0.00000000</v>
  </separator>
  <dos>
   <i name="efermi">     -5.71159708 </i>
   <total>
    <array>
     <dimension dim="1">gridpoints</dimension>
     <dimension dim="2">spin</dimension>
     <field>energy</field>
     <field>total</field>
     <field>integrated</field>
     <set>
      <set comment="spin 1">
       <r>   -25.1267     0.0000     0.0000 </r>
       <r>   -25.0212     0.0000     0.0000 </r>
       <r>   -24.9157     0.0000     0.0000 </r>
       <r>   -24.8102     0.0000     0.0000 </r>
       <r>   -24.7046     0.0000     0.0000 </r>
       <r>   -24.5991     0.0000     0.0000 </r>
       <r>   -24.4936     0.0000     0.0000 </r>
       <r>   -24.3881     0.0000     0.0000 </r>
       <r>   -24.2826     0.0000     0.0000 </r>
       <r>   -24.1771     0.0000     0.0000 </r>
       <r>   -24.0716     0.0000     0.0000 </r>
       <r>   -23.9661     0.0000     0.0000 </r>
       <r>   -23.8606     0.0000     0.0000 </r>
       <r>   -23.7550     0.0001     0.0000 </r>
       <r>   -23.6495     0.0020     0.0002 </r>
       <r>   -23.5440     0.0278     0.0031 </r>
       <r>   -23.4385     0.2290     0.0273 </r>
       <r>   -23.3330     1.1060     0.1440 </r>
       <r>   -23.2275     3.1336     0.4746 </r>
       <r>   -23.1220     5.2145     1.0248 </r>
       <r>   -23.0165     5.1002     1.5630 </r>
       <r>   -22.9109     2.9319     1.8723 </r>
       <r>   -22.8054     0.9898     1.9768 </r>
       <r>   -22.6999     0.1960     1.9974 </r>
       <r>   -22.5944     0.0227     1.9998 </r>
       <r>   -22.4889     0.0015     2.0000 </r>
       <r>   -22.3834     0.0001     2.0000 </r>
       <r>   -22.2779     0.0000     2.0000 </r>
       <r>   -22.1724     0.0000     2.0000 </r>
       <r>   -22.0668     0.0000     2.0000 </r>
       <r>   -21.9613     0.0000     2.0000 </r>
       <r>   -21.8558     0.0000     2.0000 </r>
       <r>   -21.7503     0.0000     2.0000 </r>
       <r>   -21.6448     0.0000     2.0000 </r>
       <r>   -21.5393     0.0000     2.0000 </r>
       <r>   -21.4338     0.0000     2.0000 </r>
       <r>   -21.3283     0.0000     2.0000 </r>
       <r>   -21.2227     0.0000     2.0000 </r>
       <r>   -21.1172     0.0000     2.0000 </r>
       <r>   -21.0117     0.0000     2.0000 </r>
       <r>   -20.9062     0.0000     2.0000 </r>
       <r>   -20.8007     0.0000     2.0000 </r>
       <r>   -20.6952     0.0000     2.0000 </r>
       <r>   -20.5897     0.0000     2.0000 </r>
       <r>   -20.4842     0.0000     2.0000 </r>
       <r>   -20.3786     0.0000     2.0000 </r>
       <r>   -20.2731     0.0000     2.0000 </r>
       <r>   -20.1676     0.0000     2.0000 </r>
       <r>   -20.0621     0.0000     2.0000 </r>
       <r>   -19.9566     0.0000     2.0000 </r>
       <r>   -19.8511     0.0000     2.0000 </r>
       <r>   -19.7456     0.0000     2.0000 </r>
       <r>   -19.6401     0.0000     2.0000 </r>
       <r>   -19.5345     0.0000     2.0000 </r>
       <r>   -19.4290     0.0000     2.0000 </r>
       <r>   -19.3235     0.0000     2.0000 </r>
       <r>   -19.2180     0.0000     2.0000 </r>
       <r>   -19.1125     0.0000     2.0000 </r>
       <r>   -19.0070     0.0000     2.0000 </r>
       <r>   -18.9015     0.0000     2.0000 </r>
       <r>   -18.7960     0.0000     2.0000 </r>
       <r>   -18.6904     0.0000     2.0000 </r>
       <r>   -18.5849     0.0000     2.0000 </r>
       <r>   -18.4794     0.0000     2.0000 </r>
       <r>   -18.3739     0.0000     2.0000 </r>
       <r>   -18.2684     0.0000     2.0000 </r>
       <r>   -18.1629     0.0000     2.0000 </r>
       <r>   -18.0574     0.0000     2.0000 </r>
       <r>   -17.9519     0.0000     2.0000 </r>
       <r>   -17.8463     0.0000     2.0000 </r>
       <r>   -17.7408     0.0000     2.0000 </r>
       <r>   -17.6353     0.0000     2.0000 </r>
       <r>   -17.5298     0.0000     2.0000 </r>
       <r>   -17.4243     0.0000     2.0000 </r>
       <r>   -17.3188     0.0000     2.0000 </r>
       <r>   -17.2133     0.0000     2.0000 </r>
       <r>   -17.1078     0.0000     2.0000 </r>
       <r>   -17.0022     0.0000     2.0000 </r>
       <r>   -16.8967     0.0000     2.0000 </r>
       <r>   -16.7912     0.0000     2.0000 </r>
       <r>   -16.6857     0.0000     2.0000 </r>
       <r>   -16.5802     0.0000     2.0000 </r>
       <r>   -16.4747     0.0000     2.0000 </r>
       <r>   -16.3692     0.0000     2.0000 </r>
       <r>   -16.2637     0.0000     2.0000 </r>
       <r>   -16.1581     0.0000     2.0000 </r>
       <r>   -16.0526     0.0000     2.0000 </r>
       <r>   -15.9471     0.0000     2.0000 </r>
       <r>   -15.8416     0.0000     2.0000 </r>
       <r>   -15.7361     0.0000     2.0000 </r>
       <r>   -15.6306     0.0000     2.0000 </r>
       <r>   -15.5251     0.0000     2.0000 </r>
       <r>   -15.4196     0.0000     2.0000 </r>
       <r>   -15.3140     0.0000     2.0000 </r>
       <r>   -15.2085     0.0000     2.0000 </r>
       <r>   -15.1030     0.0000     2.0000 </r>
       <r>   -14.9975     0.0000     2.0000 </r>
       <r>   -14.8920     0.0000     2.0000 </r>
       <r>   -14.7865     0.0000     2.0000 </r>
       <r>   -14.6810     0.0000     2.0000 </r>
       <r>   -14.5755     0.0000     2.0000 </r>
       <r>   -14.4699     0.0000     2.0000 </r>
       <r>   -14.3644     0.0000     2.0000 </r>
       <r>   -14.2589     0.0000     2.0000 </r>
       <r>   -14.1534     0.0000     2.0000 </r>
       <r>   -14.0479     0.0000     2.0000 </r>
       <r>   -13.9424     0.0000     2.0000 </r>
       <r>   -13.8369     0.0000     2.0000 </r>
       <r>   -13.7314     0.0000     2.0000 </r>
       <r>   -13.6258     0.0000     2.0000 </r>
       <r>   -13.5203     0.0000     2.0000 </r>
       <r>   -13.4148     0.0000     2.0000 </r>
       <r>   -13.3093     0.0000     2.0000 </r>
       <r>   -13.2038     0.0000     2.0000 </r>
       <r>   -13.0983     0.0000     2.0000 </r>
       <r>   -12.9928     0.0000     2.0000 </r>
       <r>   -12.8873     0.0000     2.0000 </r>
       <r>   -12.7818     0.0000     2.0000 </r>
       <r>   -12.6762     0.0000     2.0000 </r>
       <r>   -12.5707     0.0000     2.0000 </r>
       <r>   -12.4652     0.0000     2.0000 </r>
       <r>   -12.3597     0.0000     2.0000 </r>
       <r>   -12.2542     0.0000     2.0000 </r>
       <r>   -12.1487     0.0000     2.0000 </r>
       <r>   -12.0432     0.0000     2.0000 </r>
       <r>   -11.9377     0.0000     2.0000 </r>
       <r>   -11.8321     0.0000     2.0000 </r>
       <r>   -11.7266     0.0000     2.0000 </r>
       <r>   -11.6211     0.0011     2.0001 </r>
       <r>   -11.5156     0.0175     2.0020 </r>
       <r>   -11.4101     0.1599     2.0188 </r>
       <r>   -11.3046     0.8546     2.1090 </r>
       <r>   -11.1991     2.6791     2.3917 </r>
       <r>   -11.0936     4.9316     2.9120 </r>
       <r>   -10.9880     5.3353     3.4750 </r>
       <r>   -10.8825     3.3927     3.8329 </r>
       <r>   -10.7770     1.2673     3.9666 </r>
       <r>   -10.6715     0.2777     3.9959 </r>
       <r>   -10.5660     0.0356     3.9997 </r>
       <r>   -10.4605     0.0027     4.0000 </r>
       <r>   -10.3550     0.0001     4.0000 </r>
       <r>   -10.2495     0.0000     4.0000 </r>
       <r>   -10.1439     0.0000     4.0000 </r>
       <r>   -10.0384     0.0000     4.0000 </r>
       <r>    -9.9329     0.0000     4.0000 </r>
       <r>    -9.8274     0.0000     4.0000 </r>
       <r>    -9.7219     0.0000     4.0000 </r>
       <r>    -9.6164     0.0000     4.0000 </r>
       <r>    -9.5109     0.0001     4.0000 </r>
       <r>    -9.4054     0.0026     4.0003 </r>
       <r>    -9.2998     0.0348     4.0040 </r>
       <r>    -9.1943     0.2729     4.0328 </r>
       <r>    -9.0888     1.2518     4.1648 </r>
       <r>    -8.9833     3.3687     4.5203 </r>
       <r>    -8.8778     5.3253     5.0822 </r>
       <r>    -8.7723     4.9482     5.6042 </r>
       <r>    -8.6668     2.7021     5.8894 </r>
       <r>    -8.5613     0.8665     5.9808 </r>
       <r>    -8.4557     0.1629     5.9980 </r>
       <r>    -8.3502     0.0179     5.9999 </r>
       <r>    -8.2447     0.0012     6.0000 </r>
       <r>    -8.1392     0.0000     6.0000 </r>
       <r>    -8.0337     0.0000     6.0000 </r>
       <r>    -7.9282     0.0000     6.0000 </r>
       <r>    -7.8227     0.0000     6.0000 </r>
       <r>    -7.7172     0.0000     6.0000 </r>
       <r>    -7.6116     0.0000     6.0000 </r>
       <r>    -7.5061     0.0000     6.0000 </r>
       <r>    -7.4006     0.0000     6.0000 </r>
       <r>    -7.2951     0.0002     6.0000 </r>
       <r>    -7.1896     0.0048     6.0005 </r>
       <r>    -7.0841     0.0569     6.0065 </r>
       <r>    -6.9786     0.3968     6.0484 </r>
       <r>    -6.8731     1.6218     6.2195 </r>
       <r>    -6.7675     3.8903     6.6300 </r>
       <r>    -6.6620     5.4827     7.2085 </r>
       <r>    -6.5565     4.5419     7.6877 </r>
       <r>    -6.4510     2.2111     7.9210 </r>
       <r>    -6.3455     0.6319     7.9877 </r>
       <r>    -6.2400     0.1059     7.9988 </r>
       <r>    -6.1345     0.0104     7.9999 </r>
       <r>    -6.0290     0.0006     8.0000 </r>
       <r>    -5.9234     0.0000     8.0000 </r>
       <r>    -5.8179     0.0000     8.0000 </r>
       <r>    -5.7124     0.0000     8.0000 </r>
       <r>    -5.6069     0.0000     8.0000 </r>
       <r>    -5.5014     0.0000     8.0000 </r>
       <r>    -5.3959     0.0000     8.0000 </r>
       <r>    -5.2904     0.0000     8.0000 </r>
       <r>    -5.1849     0.0000     8.0000 </r>
       <r>    -5.0793     0.0000     8.0000 </r>
       <r>    -4.9738     0.0000     8.0000 </r>
       <r>    -4.8683     0.0000     8.0000 </r>
       <r>    -4.7628     0.0000     8.0000 </r>
       <r>    -4.6573     0.0000     8.0000 </r>
       <r>    -4.5518     0.0000     8.0000 </r>
       <r>    -4.4463     0.0000     8.0000 </r>
       <r>    -4.3408     0.0000     8.0000 </r>
       <r>    -4.2352     0.0000     8.0000 </r>
       <r>    -4.1297     0.0000     8.0000 </r>
       <r>    -4.0242     0.0000     8.0000 </r>
       <r>    -3.9187     0.0000     8.0000 </r>
       <r>    -3.8132     0.0000     8.0000 </r>
       <r>    -3.7077     0.0000     8.0000 </r>
       <r>    -3.6022     0.0000     8.0000 </r>
       <r>    -3.4967     0.0000     8.0000 </r>
       <r>    -3.3911     0.0000     8.0000 </r>
       <r>    -3.2856     0.0000     8.0000 </r>
       <r>    -3.1801     0.0000     8.0000 </r>
       <r>    -3.0746     0.0000     8.0000 </r>
       <r>    -2.9691     0.0000     8.0000 </r>
       <r>    -2.8636     0.0000     8.0000 </r>
       <r>    -2.7581     0.0000     8.0000 </r>
       <r>    -2.6526     0.0002     8.0000 </r>
       <r>    -2.5471     0.0037     8.0004 </r>
       <r>    -2.4415     0.0424     8.0049 </r>
       <r>    -2.3360     0.2949     8.0360 </r>
       <r>    -2.2305     1.2466     8.1675 </r>
       <r>    -2.1250     3.2157     8.5068 </r>
       <r>    -2.0195     5.0729     9.0421 </r>
       <r>    -1.9140     4.8961     9.5587 </r>
       <r>    -1.8085     2.8872     9.8633 </r>
       <r>    -1.7030     1.0372     9.9728 </r>
       <r>    -1.5974     0.2260     9.9966 </r>
       <r>    -1.4919     0.0297     9.9997 </r>
       <r>    -1.3864     0.0023    10.0000 </r>
       <r>    -1.2809     0.0001    10.0000 </r>
       <r>    -1.1754     0.0000    10.0000 </r>
       <r>    -1.0699     0.0002    10.0000 </r>
       <r>    -0.9644     0.0038    10.0004 </r>
       <r>    -0.8589     0.0438    10.0050 </r>
       <r>    -0.7533     0.3038    10.0371 </r>
       <r>    -0.6478     1.2729    10.1714 </r>
       <r>    -0.5423     3.2450    10.5138 </r>
       <r>    -0.4368     5.0625    11.0479 </r>
       <r>    -0.3313     4.8538    11.5601 </r>
       <r>    -0.2258     2.8649    11.8623 </r>
       <r>    -0.1203     1.0397    11.9721 </r>
       <r>    -0.0148     0.2324    11.9966 </r>
       <r>     0.0908     0.0454    12.0014 </r>
       <r>     0.1963     0.0940    12.0113 </r>
       <r>     0.3018     0.3781    12.0512 </r>
       <r>     0.4073     1.0745    12.1645 </r>
       <r>     0.5128     2.2663    12.4037 </r>
       <r>     0.6183     3.6451    12.7883 </r>
       <r>     0.7238     4.4317    13.2559 </r>
       <r>     0.8293     4.3362    13.7134 </r>
       <r>     0.9349     4.1918    14.1557 </r>
       <r>     1.0404     4.4497    14.6252 </r>
       <r>     1.1459     4.4606    15.0958 </r>
       <r>     1.2514     4.1011    15.5285 </r>
       <r>     1.3569     4.1639    15.9679 </r>
       <r>     1.4624     4.8777    16.4825 </r>
       <r>     1.5679     5.6113    17.0746 </r>
       <r>     1.6734     5.9037    17.6975 </r>
       <r>     1.7790     5.8135    18.3109 </r>
       <r>     1.8845     5.6280    18.9047 </r>
       <r>     1.9900     5.6797    19.5040 </r>
       <r>     2.0955     5.8840    20.1249 </r>
       <r>     2.2010     6.1072    20.7692 </r>
       <r>     2.3065     6.7693    21.4835 </r>
       <r>     2.4120     7.7787    22.3042 </r>
       <r>     2.5175     7.9864    23.1469 </r>
       <r>     2.6231     6.7499    23.8591 </r>
       <r>     2.7286     5.2181    24.4097 </r>
       <r>     2.8341     4.8784    24.9244 </r>
       <r>     2.9396     5.5689    25.5120 </r>
       <r>     3.0451     6.3244    26.1793 </r>
       <r>     3.1506     6.9264    26.9101 </r>
       <r>     3.2561     7.2904    27.6794 </r>
       <r>     3.3616     7.3099    28.4506 </r>
       <r>     3.4672     7.3579    29.2270 </r>
       <r>     3.5727     7.2691    29.9940 </r>
       <r>     3.6782     6.3198    30.6608 </r>
       <r>     3.7837     4.4580    31.1312 </r>
       <r>     3.8892     2.4043    31.3848 </r>
       <r>     3.9947     1.0268    31.4932 </r>
       <r>     4.1002     0.6092    31.5575 </r>
       <r>     4.2057     0.7295    31.6344 </r>
       <r>     4.3113     0.8798    31.7273 </r>
       <r>     4.4168     0.8949    31.8217 </r>
       <r>     4.5223     0.7848    31.9045 </r>
       <r>     4.6278     0.5431    31.9618 </r>
       <r>     4.7333     0.2625    31.9895 </r>
       <r>     4.8388     0.0819    31.9981 </r>
       <r>     4.9443     0.0158    31.9998 </r>
       <r>     5.0498     0.0018    32.0000 </r>
       <r>     5.1554     0.0001    32.0000 </r>
       <r>     5.2609     0.0000    32.0000 </r>
       <r>     5.3664     0.0000    32.0000 </r>
       <r>     5.4719     0.0000    32.0000 </r>
       <r>     5.5774     0.0000    32.0000 </r>
       <r>     5.6829     0.0000    32.0000 </r>
       <r>     5.7884     0.0000    32.0000 </r>
       <r>     5.8939     0.0000    32.0000 </r>
       <r>     5.9995     0.0000    32.0000 </r>
       <r>     6.1050     0.0000    32.0000 </r>
       <r>     6.2105     0.0000    32.0000 </r>
       <r>     6.3160     0.0000    32.0000 </r>
       <r>     6.4215     0.0000    32.0000 </r>
       <r>     6.5270     0.0000    32.0000 </r>
      </set>
     </set>
    </array>
   </total>
  </dos>
 </calculation>
 <structure name="finalpos" >
  <crystal>
   <varray name="basis" >
    <v>       8.00000000       0.00000000       0.00000000 </v>
    <v>       0.00000000       8.00000000       0.00000000 </v>
    <v>       0.00000000       0.00000000       8.00000000 </v>
   </varray>
   <i name="volume">    512.00000000 </i>
   <varray name="rec_basis" >
    <v>       0.12500000       0.00000000       0.00000000 </v>
    <v>       0.00000000       0.12500000       0.00000000 </v>
    <v>       0.00000000       0.00000000       0.12500000 </v>
   </varray>
  </crystal>
  <varray name="positions" >
   <v>       0.50000000       0.50000000       0.50000000 </v>
   <v>       0.64750000       0.50000000       0.53625000 </v>
   <v>       0.50000000       0.50000000       0.34750000 </v>
  </varray>
 </structure>
</modeling>
