H2O                                     
           1
     8.000000    0.000000    0.000000
     0.000000    8.000000    0.000000
     0.000000    0.000000    8.000000
   O    H 
   1   2
Direct configuration=     1
   0.50000000  0.50000000  0.50000000
   0.64750000  0.50000000  0.53625000
   0.50000000  0.50000000  0.34750000
