   2   2   0   0
  0.2560000E+03  0.8000000E-09  0.8000000E-09  0.8000000E-09  0.5000000E-15
  1.000000000000000E-004
  CAR 
 RELAX for SMALL SYSTEMS                 
      1.21457940    -30.02690401  301     -8.45726317      1.00000000
    -30.027  0.0000E+00  0.0000E+00
    -29.923  0.0000E+00  0.0000E+00
    -29.819  0.0000E+00  0.0000E+00
    -29.714  0.0000E+00  0.0000E+00
    -29.610  0.0000E+00  0.0000E+00
    -29.506  0.0000E+00  0.0000E+00
    -29.402  0.0000E+00  0.0000E+00
    -29.298  0.0000E+00  0.0000E+00
    -29.194  0.0000E+00  0.0000E+00
    -29.090  0.0000E+00  0.0000E+00
    -28.986  0.0000E+00  0.0000E+00
    -28.881  0.7783E-13  0.8105E-14
    -28.777  0.1379E-04  0.1437E-05
    -28.673  0.5846E+00  0.6088E-01
    -28.569  0.1589E+02  0.1716E+01
    -28.465  0.2728E+01  0.2000E+01
    -28.361  0.5671E-03  0.2000E+01
    -28.257  0.3221E-10  0.2000E+01
    -28.152  0.0000E+00  0.2000E+01
    -28.048  0.0000E+00  0.2000E+01
    -27.944  0.0000E+00  0.2000E+01
    -27.840  0.0000E+00  0.2000E+01
    -27.736  0.0000E+00  0.2000E+01
    -27.632  0.0000E+00  0.2000E+01
    -27.528  0.0000E+00  0.2000E+01
    -27.423  0.0000E+00  0.2000E+01
    -27.319  0.0000E+00  0.2000E+01
    -27.215  0.0000E+00  0.2000E+01
    -27.111  0.0000E+00  0.2000E+01
    -27.007  0.0000E+00  0.2000E+01
    -26.903  0.0000E+00  0.2000E+01
    -26.799  0.0000E+00  0.2000E+01
    -26.694  0.0000E+00  0.2000E+01
    -26.590  0.0000E+00  0.2000E+01
    -26.486  0.0000E+00  0.2000E+01
    -26.382  0.0000E+00  0.2000E+01
    -26.278  0.0000E+00  0.2000E+01
    -26.174  0.0000E+00  0.2000E+01
    -26.070  0.0000E+00  0.2000E+01
    -25.966  0.0000E+00  0.2000E+01
    -25.861  0.0000E+00  0.2000E+01
    -25.757  0.0000E+00  0.2000E+01
    -25.653  0.0000E+00  0.2000E+01
    -25.549  0.0000E+00  0.2000E+01
    -25.445  0.0000E+00  0.2000E+01
    -25.341  0.0000E+00  0.2000E+01
    -25.237  0.0000E+00  0.2000E+01
    -25.132  0.0000E+00  0.2000E+01
    -25.028  0.0000E+00  0.2000E+01
    -24.924  0.0000E+00  0.2000E+01
    -24.820  0.0000E+00  0.2000E+01
    -24.716  0.0000E+00  0.2000E+01
    -24.612  0.0000E+00  0.2000E+01
    -24.508  0.0000E+00  0.2000E+01
    -24.403  0.0000E+00  0.2000E+01
    -24.299  0.0000E+00  0.2000E+01
    -24.195  0.0000E+00  0.2000E+01
    -24.091  0.0000E+00  0.2000E+01
    -23.987  0.0000E+00  0.2000E+01
    -23.883  0.0000E+00  0.2000E+01
    -23.779  0.0000E+00  0.2000E+01
    -23.674  0.0000E+00  0.2000E+01
    -23.570  0.0000E+00  0.2000E+01
    -23.466  0.0000E+00  0.2000E+01
    -23.362  0.0000E+00  0.2000E+01
    -23.258  0.0000E+00  0.2000E+01
    -23.154  0.0000E+00  0.2000E+01
    -23.050  0.0000E+00  0.2000E+01
    -22.946  0.0000E+00  0.2000E+01
    -22.841  0.0000E+00  0.2000E+01
    -22.737  0.0000E+00  0.2000E+01
    -22.633  0.0000E+00  0.2000E+01
    -22.529  0.0000E+00  0.2000E+01
    -22.425  0.0000E+00  0.2000E+01
    -22.321  0.0000E+00  0.2000E+01
    -22.217  0.0000E+00  0.2000E+01
    -22.112  0.0000E+00  0.2000E+01
    -22.008  0.0000E+00  0.2000E+01
    -21.904  0.0000E+00  0.2000E+01
    -21.800  0.0000E+00  0.2000E+01
    -21.696  0.0000E+00  0.2000E+01
    -21.592  0.0000E+00  0.2000E+01
    -21.488  0.0000E+00  0.2000E+01
    -21.383  0.0000E+00  0.2000E+01
    -21.279  0.0000E+00  0.2000E+01
    -21.175  0.0000E+00  0.2000E+01
    -21.071  0.0000E+00  0.2000E+01
    -20.967  0.0000E+00  0.2000E+01
    -20.863  0.0000E+00  0.2000E+01
    -20.759  0.0000E+00  0.2000E+01
    -20.654  0.0000E+00  0.2000E+01
    -20.550  0.0000E+00  0.2000E+01
    -20.446  0.0000E+00  0.2000E+01
    -20.342  0.0000E+00  0.2000E+01
    -20.238  0.0000E+00  0.2000E+01
    -20.134  0.0000E+00  0.2000E+01
    -20.030  0.0000E+00  0.2000E+01
    -19.925  0.0000E+00  0.2000E+01
    -19.821  0.0000E+00  0.2000E+01
    -19.717  0.0000E+00  0.2000E+01
    -19.613  0.0000E+00  0.2000E+01
    -19.509  0.0000E+00  0.2000E+01
    -19.405  0.0000E+00  0.2000E+01
    -19.301  0.0000E+00  0.2000E+01
    -19.197  0.0000E+00  0.2000E+01
    -19.092  0.0000E+00  0.2000E+01
    -18.988  0.0000E+00  0.2000E+01
    -18.884  0.0000E+00  0.2000E+01
    -18.780  0.0000E+00  0.2000E+01
    -18.676  0.0000E+00  0.2000E+01
    -18.572  0.0000E+00  0.2000E+01
    -18.468  0.0000E+00  0.2000E+01
    -18.363  0.0000E+00  0.2000E+01
    -18.259  0.0000E+00  0.2000E+01
    -18.155  0.0000E+00  0.2000E+01
    -18.051  0.0000E+00  0.2000E+01
    -17.947  0.0000E+00  0.2000E+01
    -17.843  0.0000E+00  0.2000E+01
    -17.739  0.0000E+00  0.2000E+01
    -17.634  0.0000E+00  0.2000E+01
    -17.530  0.0000E+00  0.2000E+01
    -17.426  0.0000E+00  0.2000E+01
    -17.322  0.0000E+00  0.2000E+01
    -17.218  0.0000E+00  0.2000E+01
    -17.114  0.0000E+00  0.2000E+01
    -17.010  0.0000E+00  0.2000E+01
    -16.905  0.0000E+00  0.2000E+01
    -16.801  0.0000E+00  0.2000E+01
    -16.697  0.0000E+00  0.2000E+01
    -16.593  0.0000E+00  0.2000E+01
    -16.489  0.0000E+00  0.2000E+01
    -16.385  0.0000E+00  0.2000E+01
    -16.281  0.0000E+00  0.2000E+01
    -16.177  0.0000E+00  0.2000E+01
    -16.072  0.0000E+00  0.2000E+01
    -15.968  0.0000E+00  0.2000E+01
    -15.864  0.0000E+00  0.2000E+01
    -15.760  0.0000E+00  0.2000E+01
    -15.656  0.0000E+00  0.2000E+01
    -15.552  0.0000E+00  0.2000E+01
    -15.448  0.0000E+00  0.2000E+01
    -15.343  0.0000E+00  0.2000E+01
    -15.239  0.0000E+00  0.2000E+01
    -15.135  0.0000E+00  0.2000E+01
    -15.031  0.0000E+00  0.2000E+01
    -14.927  0.0000E+00  0.2000E+01
    -14.823  0.0000E+00  0.2000E+01
    -14.719  0.0000E+00  0.2000E+01
    -14.614  0.0000E+00  0.2000E+01
    -14.510  0.0000E+00  0.2000E+01
    -14.406  0.0000E+00  0.2000E+01
    -14.302  0.0000E+00  0.2000E+01
    -14.198  0.0000E+00  0.2000E+01
    -14.094  0.0000E+00  0.2000E+01
    -13.990  0.3092E-13  0.2000E+01
    -13.885  0.7713E-05  0.2000E+01
    -13.781  0.4483E+00  0.2047E+01
    -13.677  0.1550E+02  0.3661E+01
    -13.573  0.3253E+01  0.4000E+01
    -13.469  0.9167E-03  0.4000E+01
    -13.365  0.7226E-10  0.4000E+01
    -13.261  0.0000E+00  0.4000E+01
    -13.157  0.0000E+00  0.4000E+01
    -13.052  0.0000E+00  0.4000E+01
    -12.948  0.0000E+00  0.4000E+01
    -12.844  0.0000E+00  0.4000E+01
    -12.740  0.0000E+00  0.4000E+01
    -12.636  0.0000E+00  0.4000E+01
    -12.532  0.0000E+00  0.4000E+01
    -12.428  0.0000E+00  0.4000E+01
    -12.323  0.0000E+00  0.4000E+01
    -12.219  0.0000E+00  0.4000E+01
    -12.115  0.0000E+00  0.4000E+01
    -12.011  0.0000E+00  0.4000E+01
    -11.907  0.0000E+00  0.4000E+01
    -11.803  0.0000E+00  0.4000E+01
    -11.699  0.0000E+00  0.4000E+01
    -11.594  0.2132E-14  0.4000E+01
    -11.490  0.2174E-05  0.4000E+01
    -11.386  0.3522E+00  0.4037E+01
    -11.282  0.2735E+02  0.6885E+01
    -11.178  0.1070E+02  0.7999E+01
    -11.074  0.7914E-02  0.8000E+01
    -10.970  0.1788E-08  0.8000E+01
    -10.865  0.0000E+00  0.8000E+01
    -10.761  0.0000E+00  0.8000E+01
    -10.657  0.0000E+00  0.8000E+01
    -10.553  0.0000E+00  0.8000E+01
    -10.449  0.0000E+00  0.8000E+01
    -10.345  0.0000E+00  0.8000E+01
    -10.241  0.0000E+00  0.8000E+01
    -10.136  0.0000E+00  0.8000E+01
    -10.032  0.0000E+00  0.8000E+01
     -9.928  0.0000E+00  0.8000E+01
     -9.824  0.0000E+00  0.8000E+01
     -9.720  0.0000E+00  0.8000E+01
     -9.616  0.0000E+00  0.8000E+01
     -9.512  0.0000E+00  0.8000E+01
     -9.408  0.0000E+00  0.8000E+01
     -9.303  0.0000E+00  0.8000E+01
     -9.199  0.0000E+00  0.8000E+01
     -9.095  0.0000E+00  0.8000E+01
     -8.991  0.5064E-12  0.8000E+01
     -8.887  0.4475E-04  0.8000E+01
     -8.783  0.9818E+00  0.8102E+01
     -8.679  0.1640E+02  0.9810E+01
     -8.574  0.1822E+01  0.1000E+02
     -8.470  0.1991E-03  0.1000E+02
     -8.366  0.5682E-11  0.1000E+02
     -8.262  0.0000E+00  0.1000E+02
     -8.158  0.0000E+00  0.1000E+02
     -8.054  0.0000E+00  0.1000E+02
     -7.950  0.0000E+00  0.1000E+02
     -7.845  0.0000E+00  0.1000E+02
     -7.741  0.0000E+00  0.1000E+02
     -7.637  0.0000E+00  0.1000E+02
     -7.533  0.0000E+00  0.1000E+02
     -7.429  0.0000E+00  0.1000E+02
     -7.325  0.0000E+00  0.1000E+02
     -7.221  0.0000E+00  0.1000E+02
     -7.116  0.0000E+00  0.1000E+02
     -7.012  0.0000E+00  0.1000E+02
     -6.908  0.0000E+00  0.1000E+02
     -6.804  0.0000E+00  0.1000E+02
     -6.700  0.0000E+00  0.1000E+02
     -6.596  0.0000E+00  0.1000E+02
     -6.492  0.0000E+00  0.1000E+02
     -6.388  0.0000E+00  0.1000E+02
     -6.283  0.0000E+00  0.1000E+02
     -6.179  0.0000E+00  0.1000E+02
     -6.075  0.0000E+00  0.1000E+02
     -5.971  0.0000E+00  0.1000E+02
     -5.867  0.0000E+00  0.1000E+02
     -5.763  0.0000E+00  0.1000E+02
     -5.659  0.0000E+00  0.1000E+02
     -5.554  0.0000E+00  0.1000E+02
     -5.450  0.0000E+00  0.1000E+02
     -5.346  0.0000E+00  0.1000E+02
     -5.242  0.0000E+00  0.1000E+02
     -5.138  0.0000E+00  0.1000E+02
     -5.034  0.0000E+00  0.1000E+02
     -4.930  0.0000E+00  0.1000E+02
     -4.825  0.0000E+00  0.1000E+02
     -4.721  0.0000E+00  0.1000E+02
     -4.617  0.0000E+00  0.1000E+02
     -4.513  0.0000E+00  0.1000E+02
     -4.409  0.0000E+00  0.1000E+02
     -4.305  0.0000E+00  0.1000E+02
     -4.201  0.0000E+00  0.1000E+02
     -4.096  0.0000E+00  0.1000E+02
     -3.992  0.0000E+00  0.1000E+02
     -3.888  0.0000E+00  0.1000E+02
     -3.784  0.0000E+00  0.1000E+02
     -3.680  0.0000E+00  0.1000E+02
     -3.576  0.0000E+00  0.1000E+02
     -3.472  0.0000E+00  0.1000E+02
     -3.368  0.0000E+00  0.1000E+02
     -3.263  0.0000E+00  0.1000E+02
     -3.159  0.0000E+00  0.1000E+02
     -3.055  0.0000E+00  0.1000E+02
     -2.951  0.0000E+00  0.1000E+02
     -2.847  0.0000E+00  0.1000E+02
     -2.743  0.0000E+00  0.1000E+02
     -2.639  0.0000E+00  0.1000E+02
     -2.534  0.0000E+00  0.1000E+02
     -2.430  0.0000E+00  0.1000E+02
     -2.326  0.2132E-14  0.1000E+02
     -2.222  0.2005E-05  0.1000E+02
     -2.118  0.3385E+00  0.1004E+02
     -2.014  0.2718E+02  0.1287E+02
     -1.910  0.1089E+02  0.1400E+02
     -1.805  0.8365E-02  0.1400E+02
     -1.701  0.1971E-08  0.1400E+02
     -1.597  0.0000E+00  0.1400E+02
     -1.493  0.0000E+00  0.1400E+02
     -1.389  0.0000E+00  0.1400E+02
     -1.285  0.0000E+00  0.1400E+02
     -1.181  0.0000E+00  0.1400E+02
     -1.076  0.0000E+00  0.1400E+02
     -0.972  0.0000E+00  0.1400E+02
     -0.868  0.0000E+00  0.1400E+02
     -0.764  0.0000E+00  0.1400E+02
     -0.660  0.0000E+00  0.1400E+02
     -0.556  0.0000E+00  0.1400E+02
     -0.452  0.3221E-10  0.1400E+02
     -0.347  0.5671E-03  0.1400E+02
     -0.243  0.2728E+01  0.1428E+02
     -0.139  0.1589E+02  0.1594E+02
     -0.035  0.5846E+00  0.1600E+02
      0.069  0.1379E-04  0.1600E+02
      0.173  0.7676E-13  0.1600E+02
      0.277  0.0000E+00  0.1600E+02
      0.381  0.0000E+00  0.1600E+02
      0.486  0.0000E+00  0.1600E+02
      0.590  0.0000E+00  0.1600E+02
      0.694  0.0000E+00  0.1600E+02
      0.798  0.0000E+00  0.1600E+02
      0.902  0.0000E+00  0.1600E+02
      1.006  0.0000E+00  0.1600E+02
      1.110  0.0000E+00  0.1600E+02
      1.215  0.0000E+00  0.1600E+02
