    2    2    1    1
  0.2560000E+03  0.8000000E-09  0.8000000E-09  0.8000000E-09  0.5000000E-15
  1.000000000000000E-004
  CAR 
 RELAX for SMALL SYSTEMS                 
     10      1      8
 
  0.0000000E+00  0.0000000E+00  0.0000000E+00  0.1000000E+01
    1      -28.606837   1.000000
    2      -13.711007   1.000000
    3      -11.302759   1.000000
    4      -11.302759   1.000000
    5       -8.724922   1.000000
    6       -2.033933   0.000000
    7       -2.033933   0.000000
    8       -0.205488   0.000000
