       N       E                     dE             d eps       ncg     rms          rms(c)
DAV:   1     0.763344466693E+02    0.76334E+02   -0.24866E+03    16   0.713E+02
DAV:   2    -0.816424155566E+01   -0.84499E+02   -0.84499E+02    32   0.159E+02
DAV:   3    -0.146687009922E+02   -0.65045E+01   -0.65045E+01    32   0.639E+01
DAV:   4    -0.146892528345E+02   -0.20552E-01   -0.20552E-01    16   0.399E+00
DAV:   5    -0.146894355966E+02   -0.18276E-03   -0.18276E-03    24   0.395E-01    0.593E+00
DAV:   6    -0.141169043428E+02    0.57253E+00   -0.35745E+00    16   0.149E+01    0.317E+00
DAV:   7    -0.139946748667E+02    0.12223E+00   -0.65593E-01    24   0.586E+00    0.163E+00
DAV:   8    -0.139543275922E+02    0.40347E-01   -0.13109E-01    16   0.338E+00    0.330E-01
DAV:   9    -0.139537054274E+02    0.62216E-03   -0.69991E-03    16   0.746E-01    0.114E-01
DAV:  10    -0.139545030429E+02   -0.79762E-03   -0.13539E-03    16   0.322E-01    0.346E-02
DAV:  11    -0.139563035210E+02   -0.18005E-02   -0.43799E-04    16   0.138E-01    0.168E-02
DAV:  12    -0.139570261951E+02   -0.72267E-03   -0.76207E-05    16   0.618E-02    0.108E-02
DAV:  13    -0.139578579242E+02   -0.83173E-03   -0.15395E-04    16   0.618E-02    0.352E-03
DAV:  14    -0.139579907604E+02   -0.13284E-03   -0.13296E-05    16   0.206E-02    0.231E-03
DAV:  15    -0.139580666382E+02   -0.75878E-04   -0.68620E-06    16   0.134E-02    0.704E-04
DAV:  16    -0.139580812315E+02   -0.14593E-04   -0.12045E-06    16   0.558E-03    0.329E-04
DAV:  17    -0.139580844216E+02   -0.31901E-05   -0.32350E-07    16   0.259E-03    0.241E-04
DAV:  18    -0.139580853308E+02   -0.90923E-06   -0.84804E-08    16   0.153E-03    0.123E-04
DAV:  19    -0.139580854189E+02   -0.88073E-07   -0.44382E-09    16   0.384E-04
   1 F= -.13958085E+02 E0= -.13958085E+02  d E =-.101161E-13
