<?xml version="1.0" encoding="ISO-8859-1"?>
<modeling>
 <generator>
  <i name="program" type="string">vasp </i>
  <i name="version" type="string">5.4.4.18Apr17-6-g9f103f2a35  </i>
  <i name="subversion" type="string">(build Mar 26 2019 17:47:52) complex            parallel </i>
  <i name="platform" type="string">LINUX </i>
  <i name="date" type="string">2022 04 01 </i>
  <i name="time" type="string">14:26:20 </i>
 </generator>
 <incar>
  <i type="string" name="SYSTEM"> RELAX for SMALL SYSTEMS</i>
  <i type="string" name="PREC">accurate</i>
  <i type="string" name="ALGO"> Normal</i>
  <i type="int" name="ISPIN">     1</i>
  <i type="int" name="NELM">   100</i>
  <i type="int" name="NELMDL">    -5</i>
  <i type="int" name="NELMIN">     8</i>
  <i type="int" name="IBRION">     2</i>
  <i name="EDIFF">      0.00000010</i>
  <i name="EDIFFG">      0.00001000</i>
  <i type="int" name="NSW">     0</i>
  <i type="int" name="ISIF">     3</i>
  <i type="int" name="ISYM">     0</i>
  <i name="ENCUT">    500.00000000</i>
  <i type="int" name="NBANDS">     8</i>
  <i name="POTIM">      0.50000000</i>
  <i type="logical" name="LREAL"> F  </i>
  <i name="EMIN">     10.00000000</i>
  <i name="EMAX">    -10.00000000</i>
  <i type="int" name="ISMEAR">     0</i>
  <i name="SIGMA">      0.05000000</i>
  <i type="int" name="NWRITE">     1</i>
  <i type="logical" name="LWAVE"> T  </i>
  <i type="logical" name="LCHARG"> F  </i>
  <v type="int" name="KPOINT_BSE">    -1     0     0     0</v>
  <i type="int" name="NELM">   100</i>
  <i type="string" name="GGA">PS</i>
 </incar>
 <structure name="primitive_cell" >
  <crystal>
   <varray name="basis" >
    <v>       8.00000000       0.00000000       0.00000000 </v>
    <v>       0.00000000       8.00000000       0.00000000 </v>
    <v>       0.00000000       0.00000000       8.00000000 </v>
   </varray>
   <i name="volume">    512.00000000 </i>
   <varray name="rec_basis" >
    <v>       0.12500000       0.00000000       0.00000000 </v>
    <v>       0.00000000       0.12500000       0.00000000 </v>
    <v>       0.00000000       0.00000000       0.12500000 </v>
   </varray>
  </crystal>
  <varray name="positions" >
   <v>       0.00000000       0.00000000       0.00000000 </v>
   <v>       0.00000000       0.00000000       0.14540000 </v>
  </varray>
 </structure>
 <varray name="primitive_index" >
  <v type="int" >        1 </v>
  <v type="int" >        2 </v>
 </varray>
 <kpoints>
  <generation param="Monkhorst-Pack">
   <v type="int" name="divisions">       1        1        1 </v>
   <v name="usershift">      0.00000000       0.00000000       0.00000000 </v>
   <v name="genvec1">      1.00000000       0.00000000       0.00000000 </v>
   <v name="genvec2">      0.00000000       1.00000000       0.00000000 </v>
   <v name="genvec3">      0.00000000       0.00000000       1.00000000 </v>
   <v name="shift">      0.00000000       0.00000000       0.00000000 </v>
  </generation>
  <varray name="kpointlist" >
   <v>       0.00000000       0.00000000       0.00000000 </v>
  </varray>
  <varray name="weights" >
   <v>       1.00000000 </v>
  </varray>
 </kpoints>
 <parameters>
  <separator name="general" >
   <i type="string" name="SYSTEM">RELAX for SMALL SYSTEMS</i>
   <i type="logical" name="LCOMPAT"> F  </i>
  </separator>
  <separator name="electronic" >
   <i type="string" name="PREC">accura</i>
   <i name="ENMAX">    500.00000000</i>
   <i name="ENAUG">    644.87300000</i>
   <i name="EDIFF">      0.00000010</i>
   <i type="int" name="IALGO">    38</i>
   <i type="int" name="IWAVPR">    10</i>
   <i type="int" name="NBANDS">     8</i>
   <i name="NELECT">     10.00000000</i>
   <i type="int" name="TURBO">     0</i>
   <i type="int" name="IRESTART">     0</i>
   <i type="int" name="NREBOOT">     0</i>
   <i type="int" name="NMIN">     0</i>
   <i name="EREF">      0.00000000</i>
   <separator name="electronic smearing" >
    <i type="int" name="ISMEAR">     0</i>
    <i name="SIGMA">      0.05000000</i>
    <i name="KSPACING">      0.50000000</i>
    <i type="logical" name="KGAMMA"> T  </i>
   </separator>
   <separator name="electronic projectors" >
    <i type="logical" name="LREAL"> F  </i>
    <v name="ROPT">      0.00000000      0.00000000</v>
    <i type="int" name="LMAXPAW">  -100</i>
    <i type="int" name="LMAXMIX">     2</i>
    <i type="logical" name="NLSPLINE"> F  </i>
   </separator>
   <separator name="electronic startup" >
    <i type="int" name="ISTART">     0</i>
    <i type="int" name="ICHARG">     2</i>
    <i type="int" name="INIWAV">     1</i>
   </separator>
   <separator name="electronic spin" >
    <i type="int" name="ISPIN">     1</i>
    <i type="logical" name="LNONCOLLINEAR"> F  </i>
    <v name="MAGMOM">      1.00000000      1.00000000</v>
    <i name="NUPDOWN">     -1.00000000</i>
    <i type="logical" name="LSORBIT"> F  </i>
    <v name="SAXIS">      0.00000000      0.00000000      1.00000000</v>
    <i type="logical" name="LSPIRAL"> F  </i>
    <v name="QSPIRAL">      0.00000000      0.00000000      0.00000000</v>
    <i type="logical" name="LZEROZ"> F  </i>
   </separator>
   <separator name="electronic exchange-correlation" >
    <i type="logical" name="LASPH"> F  </i>
    <i type="logical" name="LMETAGGA"> F  </i>
   </separator>
   <separator name="electronic convergence" >
    <i type="int" name="NELM">   100</i>
    <i type="int" name="NELMDL">    -5</i>
    <i type="int" name="NELMIN">     8</i>
    <i name="ENINI">    500.00000000</i>
    <separator name="electronic convergence detail" >
     <i type="logical" name="LDIAG"> T  </i>
     <i type="logical" name="LSUBROT"> F  </i>
     <i name="WEIMIN">      0.00000000</i>
     <i name="EBREAK">      0.00000000</i>
     <i name="DEPER">      0.30000000</i>
     <i type="int" name="NRMM">     4</i>
     <i name="TIME">      0.40000000</i>
    </separator>
   </separator>
   <separator name="electronic mixer" >
    <i name="AMIX">      0.40000000</i>
    <i name="BMIX">      1.00000000</i>
    <i name="AMIN">      0.10000000</i>
    <i name="AMIX_MAG">      1.60000000</i>
    <i name="BMIX_MAG">      1.00000000</i>
    <separator name="electronic mixer details" >
     <i type="int" name="IMIX">     4</i>
     <i type="logical" name="MIXFIRST"> F  </i>
     <i type="int" name="MAXMIX">   -45</i>
     <i name="WC">    100.00000000</i>
     <i type="int" name="INIMIX">     1</i>
     <i type="int" name="MIXPRE">     1</i>
     <i type="int" name="MREMOVE">     5</i>
    </separator>
   </separator>
   <separator name="electronic dipolcorrection" >
    <i type="logical" name="LDIPOL"> F  </i>
    <i type="logical" name="LMONO"> F  </i>
    <i type="int" name="IDIPOL">     0</i>
    <i name="EPSILON">      1.00000000</i>
    <v name="DIPOL">   -100.00000000   -100.00000000   -100.00000000</v>
    <i name="EFIELD">      0.00000000</i>
   </separator>
  </separator>
  <separator name="grids" >
   <i type="int" name="NGX">    60</i>
   <i type="int" name="NGY">    60</i>
   <i type="int" name="NGZ">    60</i>
   <i type="int" name="NGXF">   120</i>
   <i type="int" name="NGYF">   120</i>
   <i type="int" name="NGZF">   120</i>
   <i type="logical" name="ADDGRID"> F  </i>
  </separator>
  <separator name="ionic" >
   <i type="int" name="NSW">     0</i>
   <i type="int" name="IBRION">    -1</i>
   <i type="int" name="MDALGO">     0</i>
   <i type="int" name="ISIF">     3</i>
   <i name="PSTRESS">      0.00000000</i>
   <i name="EDIFFG">      0.00001000</i>
   <i type="int" name="NFREE">     1</i>
   <i name="POTIM">      0.50000000</i>
   <i name="SMASS">     -3.00000000</i>
   <i name="SCALEE">      1.00000000</i>
  </separator>
  <separator name="ionic md" >
   <i name="TEBEG">      0.00010000</i>
   <i name="TEEND">      0.00010000</i>
   <i type="int" name="NBLOCK">     1</i>
   <i type="int" name="KBLOCK">     1</i>
   <i type="int" name="NPACO">   256</i>
   <i name="APACO">     16.00000000</i>
  </separator>
  <separator name="symmetry" >
   <i type="int" name="ISYM">     0</i>
   <i name="SYMPREC">      0.00001000</i>
  </separator>
  <separator name="dos" >
   <i type="int" name="LORBIT">     0</i>
   <v name="RWIGS">     -1.00000000     -1.00000000</v>
   <i type="int" name="NEDOS">   301</i>
   <i name="EMIN">     10.00000000</i>
   <i name="EMAX">    -10.00000000</i>
   <i name="EFERMI">      0.00000000</i>
  </separator>
  <separator name="writing" >
   <i type="int" name="NWRITE">     1</i>
   <i type="logical" name="LWAVE"> T  </i>
   <i type="logical" name="LDOWNSAMPLE"> F  </i>
   <i type="logical" name="LCHARG"> F  </i>
   <i type="logical" name="LPARD"> F  </i>
   <i type="logical" name="LVTOT"> F  </i>
   <i type="logical" name="LVHAR"> F  </i>
   <i type="logical" name="LELF"> F  </i>
   <i type="logical" name="LOPTICS"> F  </i>
   <v name="STM">      0.00000000      0.00000000      0.00000000      0.00000000      0.00000000      0.00000000      0.00000000</v>
  </separator>
  <separator name="performance" >
   <i type="int" name="NPAR">     4</i>
   <i type="int" name="NSIM">     4</i>
   <i type="int" name="NBLK">    -1</i>
   <i type="logical" name="LPLANE"> T  </i>
   <i type="logical" name="LSCALAPACK"> F  </i>
   <i type="logical" name="LSCAAWARE"> F  </i>
   <i type="logical" name="LSCALU"> F  </i>
   <i type="logical" name="LASYNC"> F  </i>
   <i type="logical" name="LORBITALREAL"> F  </i>
  </separator>
  <separator name="miscellaneous" >
   <i type="int" name="IDIOT">     3</i>
   <i type="int" name="ISPECIAL">     0</i>
   <i type="logical" name="LMUSIC"> F  </i>
   <v name="POMASS">     12.01100000     16.00000000</v>
   <v name="DARWINR">      0.00000000      0.00000000</v>
   <v name="DARWINV">      1.00000000      1.00000000</v>
   <i type="logical" name="LCORR"> T  </i>
  </separator>
  <i type="logical" name="GGA_COMPAT"> T  </i>
  <i type="logical" name="LBERRY"> F  </i>
  <i type="int" name="ICORELEVEL">     0</i>
  <i type="logical" name="LDAU"> F  </i>
  <i type="int" name="I_CONSTRAINED_M">     0</i>
  <separator name="electronic exchange-correlation" >
   <i type="string" name="GGA">PS</i>
   <i type="int" name="VOSKOWN">     0</i>
   <i type="logical" name="LHFCALC"> F  </i>
   <i type="string" name="PRECFOCK"></i>
   <i type="logical" name="LSYMGRAD"> F  </i>
   <i type="logical" name="LHFONE"> F  </i>
   <i type="logical" name="LRHFCALC"> F  </i>
   <i type="logical" name="LTHOMAS"> F  </i>
   <i type="logical" name="LMODELHF"> F  </i>
   <i name="ENCUT4O">     -1.00000000</i>
   <i type="int" name="EXXOEP">     0</i>
   <i type="int" name="FOURORBIT">     0</i>
   <i name="AEXX">      0.00000000</i>
   <i name="HFALPHA">      0.00000000</i>
   <i name="MCALPHA">      0.00000000</i>
   <i name="ALDAX">      1.00000000</i>
   <i name="AGGAX">      1.00000000</i>
   <i name="ALDAC">      1.00000000</i>
   <i name="AGGAC">      1.00000000</i>
   <i type="int" name="NKREDX">     1</i>
   <i type="int" name="NKREDY">     1</i>
   <i type="int" name="NKREDZ">     1</i>
   <i type="logical" name="SHIFTRED"> F  </i>
   <i type="logical" name="ODDONLY"> F  </i>
   <i type="logical" name="EVENONLY"> F  </i>
   <i type="int" name="LMAXFOCK">     0</i>
   <i type="int" name="NMAXFOCKAE">     0</i>
   <i type="logical" name="LFOCKAEDFT"> F  </i>
   <i name="HFSCREEN">      0.00000000</i>
   <i name="HFSCREENC">      0.00000000</i>
   <i type="int" name="NBANDSGWLOW">     0</i>
  </separator>
  <separator name="vdW DFT" >
   <i type="logical" name="LUSE_VDW"> F  </i>
   <i name="Zab_VDW">     -0.84910000</i>
   <i name="PARAM1">      0.12340000</i>
   <i name="PARAM2">      1.00000000</i>
   <i name="PARAM3">      0.00000000</i>
  </separator>
  <separator name="model GW" >
   <i type="int" name="MODEL_GW">     0</i>
   <i name="MODEL_EPS0">    153.60000000</i>
   <i name="MODEL_ALPHA">      1.00000000</i>
  </separator>
  <separator name="linear response parameters" >
   <i type="logical" name="LEPSILON"> F  </i>
   <i type="logical" name="LRPA"> F  </i>
   <i type="logical" name="LNABLA"> F  </i>
   <i type="logical" name="LVEL"> F  </i>
   <i type="int" name="KINTER">     0</i>
   <i name="CSHIFT">      0.10000000</i>
   <i name="OMEGAMAX">     -1.00000000</i>
   <i name="DEG_THRESHOLD">      0.00200000</i>
   <i name="RTIME">     -0.10000000</i>
   <i name="WPLASMAI">      0.00000000</i>
   <v name="DFIELD">      0.00000000      0.00000000      0.00000000</v>
   <v name="WPLASMA">      0.00000000      0.00000000      0.00000000      0.00000000      0.00000000      0.00000000      0.00000000      0.00000000      0.00000000</v>
  </separator>
  <separator name="orbital magnetization" >
   <i type="logical" name="NUCIND"> F  </i>
   <v name="MAGPOS">      0.00000000      0.00000000      0.00000000</v>
   <i type="logical" name="LNICSALL"> T  </i>
   <i type="logical" name="ORBITALMAG"> F  </i>
   <i type="logical" name="LMAGBLOCH"> F  </i>
   <i type="logical" name="LCHIMAG"> F  </i>
   <i type="logical" name="LGAUGE"> T  </i>
   <i type="int" name="MAGATOM">     0</i>
   <v name="MAGDIPOL">      0.00000000      0.00000000      0.00000000</v>
   <v name="AVECCONST">      0.00000000      0.00000000      0.00000000</v>
  </separator>
  <separator name="response functions" >
   <i type="logical" name="LADDER"> F  </i>
   <i type="logical" name="LRPAFORCE"> F  </i>
   <i type="logical" name="LFXC"> F  </i>
   <i type="logical" name="LHARTREE"> T  </i>
   <i type="int" name="IBSE">     0</i>
   <v type="int" name="KPOINT">    -1     0     0     0</v>
   <i type="logical" name="LTCTE"> F  </i>
   <i type="logical" name="LTETE"> F  </i>
   <i type="logical" name="LTRIPLET"> F  </i>
   <i type="logical" name="LFXCEPS"> F  </i>
   <i type="logical" name="LFXHEG"> F  </i>
   <i type="int" name="NATURALO">     2</i>
   <i type="logical" name="L2ORDER"> F  </i>
   <i type="logical" name="LMP2LT"> F  </i>
   <i type="logical" name="LUSEW"> F  </i>
   <i name="ENCUTGW">     -2.00000000</i>
   <i name="ENCUTGWSOFT">     -2.00000000</i>
   <i name="ENCUTLF">     -1.00000000</i>
   <i type="int" name="LMAXMP2">    -1</i>
   <i name="SCISSOR">      0.00000000</i>
   <i type="int" name="NOMEGA">     0</i>
   <i type="int" name="NOMEGAR">     0</i>
   <i type="int" name="NBANDSGW">    -1</i>
   <i type="int" name="NBANDSO">    -1</i>
   <i type="int" name="NBANDSV">    -1</i>
   <i type="int" name="NELM">   100</i>
   <i type="int" name="NELMHF">     1</i>
   <i type="int" name="DIM">     3</i>
   <i type="int" name="ANTIRES">     0</i>
   <i name="OMEGAMAX">    -30.00000000</i>
   <i name="OMEGAMIN">    -30.00000000</i>
   <i name="OMEGATL">   -200.00000000</i>
   <i type="int" name="OMEGAGRID">   140</i>
   <i name="CSHIFT">     -0.10000000</i>
   <i type="logical" name="SELFENERGY"> F  </i>
   <i type="logical" name="LSPECTRAL"> F  </i>
   <i type="logical" name="LSPECTRALGW"> F  </i>
   <i type="logical" name="LSINGLES"> F  </i>
   <i type="logical" name="LFERMIGW"> F  </i>
   <i type="logical" name="ODDONLYGW"> F  </i>
   <i type="logical" name="EVENONLYGW"> F  </i>
   <i type="int" name="NKREDLFX">     1</i>
   <i type="int" name="NKREDLFY">     1</i>
   <i type="int" name="NKREDLFZ">     1</i>
   <i type="int" name="MAXMEM">  2800</i>
   <i type="int" name="TELESCOPE">     0</i>
   <i type="int" name="TAUPAR">     1</i>
   <i type="int" name="OMEGAPAR">    -1</i>
   <i name="LAMBDA">      1.00000000</i>
  </separator>
  <separator name="External order field" >
   <i name="OFIELD_KAPPA">      0.00000000</i>
   <v name="OFIELD_K">      0.00000000      0.00000000      0.00000000</v>
   <i name="OFIELD_Q6_NEAR">      0.00000000</i>
   <i name="OFIELD_Q6_FAR">      0.00000000</i>
   <i name="OFIELD_A">      0.00000000</i>
  </separator>
 </parameters>
 <atominfo>
  <atoms>       2 </atoms>
  <types>       2 </types>
  <array name="atoms" >
   <dimension dim="1">ion</dimension>
   <field type="string">element</field>
   <field type="int">atomtype</field>
   <set>
    <rc><c>C </c><c>   1</c></rc>
    <rc><c>O </c><c>   2</c></rc>
   </set>
  </array>
  <array name="atomtypes" >
   <dimension dim="1">type</dimension>
   <field type="int">atomspertype</field>
   <field type="string">element</field>
   <field>mass</field>
   <field>valence</field>
   <field type="string">pseudopotential</field>
   <set>
    <rc><c>   1</c><c>C </c><c>     12.01100000</c><c>      4.00000000</c><c> PAW_PBE C 08Apr2002                    </c></rc>
    <rc><c>   1</c><c>O </c><c>     16.00000000</c><c>      6.00000000</c><c> PAW_PBE O 08Apr2002                    </c></rc>
   </set>
  </array>
 </atominfo>
 <structure name="initialpos" >
  <crystal>
   <varray name="basis" >
    <v>       8.00000000       0.00000000       0.00000000 </v>
    <v>       0.00000000       8.00000000       0.00000000 </v>
    <v>       0.00000000       0.00000000       8.00000000 </v>
   </varray>
   <i name="volume">    512.00000000 </i>
   <varray name="rec_basis" >
    <v>       0.12500000       0.00000000       0.00000000 </v>
    <v>       0.00000000       0.12500000       0.00000000 </v>
    <v>       0.00000000       0.00000000       0.12500000 </v>
   </varray>
  </crystal>
  <varray name="positions" >
   <v>       0.00000000       0.00000000       0.00000000 </v>
   <v>       0.00000000       0.00000000       0.14540000 </v>
  </varray>
 </structure>
 <calculation>
  <scstep>
   <time name="dav">    0.01    0.02</time>
   <time name="total">    0.04    0.05</time>
   <energy>
    <i name="alphaZ">      0.85010715 </i>
    <i name="ewald">     43.72707854 </i>
    <i name="hartreedc">   -509.52724572 </i>
    <i name="XCdc">     40.12294845 </i>
    <i name="pawpsdc">    284.69710227 </i>
    <i name="pawaedc">   -286.94008828 </i>
    <i name="eentropy">     -0.00000000 </i>
    <i name="bandstr">    -74.60765071 </i>
    <i name="atom">    578.01219497 </i>
    <i name="e_fr_energy">     76.33444667 </i>
    <i name="e_wo_entrp">     76.33444667 </i>
    <i name="e_0_energy">     76.33444667 </i>
   </energy>
  </scstep>
  <scstep>
   <time name="dav">    0.01    0.02</time>
   <time name="total">    0.01    0.02</time>
   <energy>
    <i name="e_fr_energy">     -8.16424156 </i>
    <i name="e_wo_entrp">     -8.16424156 </i>
    <i name="e_0_energy">     -8.16424156 </i>
   </energy>
  </scstep>
  <scstep>
   <time name="dav">    0.01    0.02</time>
   <time name="total">    0.02    0.02</time>
   <energy>
    <i name="e_fr_energy">    -14.66870099 </i>
    <i name="e_wo_entrp">    -14.66870099 </i>
    <i name="e_0_energy">    -14.66870099 </i>
   </energy>
  </scstep>
  <scstep>
   <time name="dav">    0.01    0.01</time>
   <time name="total">    0.01    0.01</time>
   <energy>
    <i name="e_fr_energy">    -14.68925283 </i>
    <i name="e_wo_entrp">    -14.68925283 </i>
    <i name="e_0_energy">    -14.68925283 </i>
   </energy>
  </scstep>
  <scstep>
   <time name="dav">    0.01    0.01</time>
   <time name="total">    0.02    0.02</time>
   <energy>
    <i name="e_fr_energy">    -14.68943560 </i>
    <i name="e_wo_entrp">    -14.68943560 </i>
    <i name="e_0_energy">    -14.68943560 </i>
   </energy>
  </scstep>
  <scstep>
   <time name="dav">    0.01    0.01</time>
   <time name="total">    0.03    0.05</time>
   <energy>
    <i name="e_fr_energy">    -14.11690434 </i>
    <i name="e_wo_entrp">    -14.11690434 </i>
    <i name="e_0_energy">    -14.11690434 </i>
   </energy>
  </scstep>
  <scstep>
   <time name="dav">    0.01    0.01</time>
   <time name="total">    0.03    0.04</time>
   <energy>
    <i name="e_fr_energy">    -13.99467487 </i>
    <i name="e_wo_entrp">    -13.99467487 </i>
    <i name="e_0_energy">    -13.99467487 </i>
   </energy>
  </scstep>
  <scstep>
   <time name="dav">    0.01    0.01</time>
   <time name="total">    0.03    0.04</time>
   <energy>
    <i name="e_fr_energy">    -13.95432759 </i>
    <i name="e_wo_entrp">    -13.95432759 </i>
    <i name="e_0_energy">    -13.95432759 </i>
   </energy>
  </scstep>
  <scstep>
   <time name="dav">    0.01    0.01</time>
   <time name="total">    0.03    0.04</time>
   <energy>
    <i name="e_fr_energy">    -13.95370543 </i>
    <i name="e_wo_entrp">    -13.95370543 </i>
    <i name="e_0_energy">    -13.95370543 </i>
   </energy>
  </scstep>
  <scstep>
   <time name="dav">    0.01    0.01</time>
   <time name="total">    0.03    0.04</time>
   <energy>
    <i name="e_fr_energy">    -13.95450304 </i>
    <i name="e_wo_entrp">    -13.95450304 </i>
    <i name="e_0_energy">    -13.95450304 </i>
   </energy>
  </scstep>
  <scstep>
   <time name="dav">    0.01    0.01</time>
   <time name="total">    0.04    0.04</time>
   <energy>
    <i name="e_fr_energy">    -13.95630352 </i>
    <i name="e_wo_entrp">    -13.95630352 </i>
    <i name="e_0_energy">    -13.95630352 </i>
   </energy>
  </scstep>
  <scstep>
   <time name="dav">    0.01    0.01</time>
   <time name="total">    0.03    0.04</time>
   <energy>
    <i name="e_fr_energy">    -13.95702620 </i>
    <i name="e_wo_entrp">    -13.95702620 </i>
    <i name="e_0_energy">    -13.95702620 </i>
   </energy>
  </scstep>
  <scstep>
   <time name="dav">    0.01    0.01</time>
   <time name="total">    0.03    0.04</time>
   <energy>
    <i name="e_fr_energy">    -13.95785792 </i>
    <i name="e_wo_entrp">    -13.95785792 </i>
    <i name="e_0_energy">    -13.95785792 </i>
   </energy>
  </scstep>
  <scstep>
   <time name="dav">    0.01    0.01</time>
   <time name="total">    0.03    0.04</time>
   <energy>
    <i name="e_fr_energy">    -13.95799076 </i>
    <i name="e_wo_entrp">    -13.95799076 </i>
    <i name="e_0_energy">    -13.95799076 </i>
   </energy>
  </scstep>
  <scstep>
   <time name="dav">    0.01    0.01</time>
   <time name="total">    0.03    0.04</time>
   <energy>
    <i name="e_fr_energy">    -13.95806664 </i>
    <i name="e_wo_entrp">    -13.95806664 </i>
    <i name="e_0_energy">    -13.95806664 </i>
   </energy>
  </scstep>
  <scstep>
   <time name="dav">    0.01    0.01</time>
   <time name="total">    0.03    0.04</time>
   <energy>
    <i name="e_fr_energy">    -13.95808123 </i>
    <i name="e_wo_entrp">    -13.95808123 </i>
    <i name="e_0_energy">    -13.95808123 </i>
   </energy>
  </scstep>
  <scstep>
   <time name="dav">    0.01    0.01</time>
   <time name="total">    0.03    0.04</time>
   <energy>
    <i name="e_fr_energy">    -13.95808442 </i>
    <i name="e_wo_entrp">    -13.95808442 </i>
    <i name="e_0_energy">    -13.95808442 </i>
   </energy>
  </scstep>
  <scstep>
   <time name="dav">    0.01    0.01</time>
   <time name="total">    0.03    0.04</time>
   <energy>
    <i name="e_fr_energy">    -13.95808533 </i>
    <i name="e_wo_entrp">    -13.95808533 </i>
    <i name="e_0_energy">    -13.95808533 </i>
   </energy>
  </scstep>
  <scstep>
   <time name="dav">    0.01    0.01</time>
   <time name="total">    0.03    0.03</time>
   <energy>
    <i name="alphaZ">      0.85010715 </i>
    <i name="ewald">     43.72707854 </i>
    <i name="hartreedc">   -528.11733499 </i>
    <i name="XCdc">     41.22833363 </i>
    <i name="pawpsdc">    366.15976348 </i>
    <i name="pawaedc">   -368.52165916 </i>
    <i name="eentropy">     -0.00000000 </i>
    <i name="bandstr">   -147.29656903 </i>
    <i name="atom">    578.01219497 </i>
    <i name="e_fr_energy">    -13.95808542 </i>
    <i name="e_wo_entrp">    -13.95808542 </i>
    <i name="e_0_energy">    -13.95808542 </i>
   </energy>
  </scstep>
  <structure>
   <crystal>
    <varray name="basis" >
     <v>       8.00000000       0.00000000       0.00000000 </v>
     <v>       0.00000000       8.00000000       0.00000000 </v>
     <v>       0.00000000       0.00000000       8.00000000 </v>
    </varray>
    <i name="volume">    512.00000000 </i>
    <varray name="rec_basis" >
     <v>       0.12500000       0.00000000       0.00000000 </v>
     <v>       0.00000000       0.12500000       0.00000000 </v>
     <v>       0.00000000       0.00000000       0.12500000 </v>
    </varray>
   </crystal>
   <varray name="positions" >
    <v>       0.00000000       0.00000000       0.00000000 </v>
    <v>       0.00000000       0.00000000       0.14540000 </v>
   </varray>
  </structure>
  <varray name="forces" >
   <v>       0.00000020      -0.00000014       2.30025841 </v>
   <v>      -0.00000020       0.00000014      -2.30025841 </v>
  </varray>
  <varray name="stress" >
   <v>      -0.15319776      -0.00000011       0.00000206 </v>
   <v>      -0.00000011      -0.15319802      -0.00000147 </v>
   <v>       0.00000206      -0.00000147      -8.58006908 </v>
  </varray>
  <energy>
   <i name="e_fr_energy">    -13.95808542 </i>
   <i name="e_wo_entrp">    -13.95808542 </i>
   <i name="e_0_energy">     -0.00000000 </i>
  </energy>
  <time name="totalsc">    0.59    0.71</time>
  <eigenvalues>
   <array>
    <dimension dim="1">band</dimension>
    <dimension dim="2">kpoint</dimension>
    <dimension dim="3">spin</dimension>
    <field>eigene</field>
    <field>occ</field>
    <set>
     <set comment="spin 1">
      <set comment="kpoint 1">
       <r>  -28.6068    1.0000 </r>
       <r>  -13.7110    1.0000 </r>
       <r>  -11.3028    1.0000 </r>
       <r>  -11.3028    1.0000 </r>
       <r>   -8.7249    1.0000 </r>
       <r>   -2.0339    0.0000 </r>
       <r>   -2.0339    0.0000 </r>
       <r>   -0.2055    0.0000 </r>
      </set>
     </set>
    </set>
   </array>
  </eigenvalues>
  <separator name="orbital magnetization" >
   <v name="MAGDIPOLOUT">      0.00000000      0.00000000      0.00000000</v>
  </separator>
  <dos>
   <i name="efermi">     -8.45726317 </i>
   <total>
    <array>
     <dimension dim="1">gridpoints</dimension>
     <dimension dim="2">spin</dimension>
     <field>energy</field>
     <field>total</field>
     <field>integrated</field>
     <set>
      <set comment="spin 1">
       <r>   -30.0269     0.0000     0.0000 </r>
       <r>   -29.9228     0.0000     0.0000 </r>
       <r>   -29.8186     0.0000     0.0000 </r>
       <r>   -29.7145     0.0000     0.0000 </r>
       <r>   -29.6104     0.0000     0.0000 </r>
       <r>   -29.5062     0.0000     0.0000 </r>
       <r>   -29.4021     0.0000     0.0000 </r>
       <r>   -29.2979     0.0000     0.0000 </r>
       <r>   -29.1938     0.0000     0.0000 </r>
       <r>   -29.0897     0.0000     0.0000 </r>
       <r>   -28.9855     0.0000     0.0000 </r>
       <r>   -28.8814     0.0000     0.0000 </r>
       <r>   -28.7772     0.0000     0.0000 </r>
       <r>   -28.6731     0.5846     0.0609 </r>
       <r>   -28.5690    15.8922     1.7159 </r>
       <r>   -28.4648     2.7278     1.9999 </r>
       <r>   -28.3607     0.0006     2.0000 </r>
       <r>   -28.2566     0.0000     2.0000 </r>
       <r>   -28.1524     0.0000     2.0000 </r>
       <r>   -28.0483     0.0000     2.0000 </r>
       <r>   -27.9441     0.0000     2.0000 </r>
       <r>   -27.8400     0.0000     2.0000 </r>
       <r>   -27.7359     0.0000     2.0000 </r>
       <r>   -27.6317     0.0000     2.0000 </r>
       <r>   -27.5276     0.0000     2.0000 </r>
       <r>   -27.4234     0.0000     2.0000 </r>
       <r>   -27.3193     0.0000     2.0000 </r>
       <r>   -27.2152     0.0000     2.0000 </r>
       <r>   -27.1110     0.0000     2.0000 </r>
       <r>   -27.0069     0.0000     2.0000 </r>
       <r>   -26.9028     0.0000     2.0000 </r>
       <r>   -26.7986     0.0000     2.0000 </r>
       <r>   -26.6945     0.0000     2.0000 </r>
       <r>   -26.5903     0.0000     2.0000 </r>
       <r>   -26.4862     0.0000     2.0000 </r>
       <r>   -26.3821     0.0000     2.0000 </r>
       <r>   -26.2779     0.0000     2.0000 </r>
       <r>   -26.1738     0.0000     2.0000 </r>
       <r>   -26.0696     0.0000     2.0000 </r>
       <r>   -25.9655     0.0000     2.0000 </r>
       <r>   -25.8614     0.0000     2.0000 </r>
       <r>   -25.7572     0.0000     2.0000 </r>
       <r>   -25.6531     0.0000     2.0000 </r>
       <r>   -25.5490     0.0000     2.0000 </r>
       <r>   -25.4448     0.0000     2.0000 </r>
       <r>   -25.3407     0.0000     2.0000 </r>
       <r>   -25.2365     0.0000     2.0000 </r>
       <r>   -25.1324     0.0000     2.0000 </r>
       <r>   -25.0283     0.0000     2.0000 </r>
       <r>   -24.9241     0.0000     2.0000 </r>
       <r>   -24.8200     0.0000     2.0000 </r>
       <r>   -24.7159     0.0000     2.0000 </r>
       <r>   -24.6117     0.0000     2.0000 </r>
       <r>   -24.5076     0.0000     2.0000 </r>
       <r>   -24.4034     0.0000     2.0000 </r>
       <r>   -24.2993     0.0000     2.0000 </r>
       <r>   -24.1952     0.0000     2.0000 </r>
       <r>   -24.0910     0.0000     2.0000 </r>
       <r>   -23.9869     0.0000     2.0000 </r>
       <r>   -23.8827     0.0000     2.0000 </r>
       <r>   -23.7786     0.0000     2.0000 </r>
       <r>   -23.6745     0.0000     2.0000 </r>
       <r>   -23.5703     0.0000     2.0000 </r>
       <r>   -23.4662     0.0000     2.0000 </r>
       <r>   -23.3621     0.0000     2.0000 </r>
       <r>   -23.2579     0.0000     2.0000 </r>
       <r>   -23.1538     0.0000     2.0000 </r>
       <r>   -23.0496     0.0000     2.0000 </r>
       <r>   -22.9455     0.0000     2.0000 </r>
       <r>   -22.8414     0.0000     2.0000 </r>
       <r>   -22.7372     0.0000     2.0000 </r>
       <r>   -22.6331     0.0000     2.0000 </r>
       <r>   -22.5289     0.0000     2.0000 </r>
       <r>   -22.4248     0.0000     2.0000 </r>
       <r>   -22.3207     0.0000     2.0000 </r>
       <r>   -22.2165     0.0000     2.0000 </r>
       <r>   -22.1124     0.0000     2.0000 </r>
       <r>   -22.0083     0.0000     2.0000 </r>
       <r>   -21.9041     0.0000     2.0000 </r>
       <r>   -21.8000     0.0000     2.0000 </r>
       <r>   -21.6958     0.0000     2.0000 </r>
       <r>   -21.5917     0.0000     2.0000 </r>
       <r>   -21.4876     0.0000     2.0000 </r>
       <r>   -21.3834     0.0000     2.0000 </r>
       <r>   -21.2793     0.0000     2.0000 </r>
       <r>   -21.1752     0.0000     2.0000 </r>
       <r>   -21.0710     0.0000     2.0000 </r>
       <r>   -20.9669     0.0000     2.0000 </r>
       <r>   -20.8627     0.0000     2.0000 </r>
       <r>   -20.7586     0.0000     2.0000 </r>
       <r>   -20.6545     0.0000     2.0000 </r>
       <r>   -20.5503     0.0000     2.0000 </r>
       <r>   -20.4462     0.0000     2.0000 </r>
       <r>   -20.3420     0.0000     2.0000 </r>
       <r>   -20.2379     0.0000     2.0000 </r>
       <r>   -20.1338     0.0000     2.0000 </r>
       <r>   -20.0296     0.0000     2.0000 </r>
       <r>   -19.9255     0.0000     2.0000 </r>
       <r>   -19.8214     0.0000     2.0000 </r>
       <r>   -19.7172     0.0000     2.0000 </r>
       <r>   -19.6131     0.0000     2.0000 </r>
       <r>   -19.5089     0.0000     2.0000 </r>
       <r>   -19.4048     0.0000     2.0000 </r>
       <r>   -19.3007     0.0000     2.0000 </r>
       <r>   -19.1965     0.0000     2.0000 </r>
       <r>   -19.0924     0.0000     2.0000 </r>
       <r>   -18.9882     0.0000     2.0000 </r>
       <r>   -18.8841     0.0000     2.0000 </r>
       <r>   -18.7800     0.0000     2.0000 </r>
       <r>   -18.6758     0.0000     2.0000 </r>
       <r>   -18.5717     0.0000     2.0000 </r>
       <r>   -18.4676     0.0000     2.0000 </r>
       <r>   -18.3634     0.0000     2.0000 </r>
       <r>   -18.2593     0.0000     2.0000 </r>
       <r>   -18.1551     0.0000     2.0000 </r>
       <r>   -18.0510     0.0000     2.0000 </r>
       <r>   -17.9469     0.0000     2.0000 </r>
       <r>   -17.8427     0.0000     2.0000 </r>
       <r>   -17.7386     0.0000     2.0000 </r>
       <r>   -17.6344     0.0000     2.0000 </r>
       <r>   -17.5303     0.0000     2.0000 </r>
       <r>   -17.4262     0.0000     2.0000 </r>
       <r>   -17.3220     0.0000     2.0000 </r>
       <r>   -17.2179     0.0000     2.0000 </r>
       <r>   -17.1138     0.0000     2.0000 </r>
       <r>   -17.0096     0.0000     2.0000 </r>
       <r>   -16.9055     0.0000     2.0000 </r>
       <r>   -16.8013     0.0000     2.0000 </r>
       <r>   -16.6972     0.0000     2.0000 </r>
       <r>   -16.5931     0.0000     2.0000 </r>
       <r>   -16.4889     0.0000     2.0000 </r>
       <r>   -16.3848     0.0000     2.0000 </r>
       <r>   -16.2807     0.0000     2.0000 </r>
       <r>   -16.1765     0.0000     2.0000 </r>
       <r>   -16.0724     0.0000     2.0000 </r>
       <r>   -15.9682     0.0000     2.0000 </r>
       <r>   -15.8641     0.0000     2.0000 </r>
       <r>   -15.7600     0.0000     2.0000 </r>
       <r>   -15.6558     0.0000     2.0000 </r>
       <r>   -15.5517     0.0000     2.0000 </r>
       <r>   -15.4475     0.0000     2.0000 </r>
       <r>   -15.3434     0.0000     2.0000 </r>
       <r>   -15.2393     0.0000     2.0000 </r>
       <r>   -15.1351     0.0000     2.0000 </r>
       <r>   -15.0310     0.0000     2.0000 </r>
       <r>   -14.9269     0.0000     2.0000 </r>
       <r>   -14.8227     0.0000     2.0000 </r>
       <r>   -14.7186     0.0000     2.0000 </r>
       <r>   -14.6144     0.0000     2.0000 </r>
       <r>   -14.5103     0.0000     2.0000 </r>
       <r>   -14.4062     0.0000     2.0000 </r>
       <r>   -14.3020     0.0000     2.0000 </r>
       <r>   -14.1979     0.0000     2.0000 </r>
       <r>   -14.0937     0.0000     2.0000 </r>
       <r>   -13.9896     0.0000     2.0000 </r>
       <r>   -13.8855     0.0000     2.0000 </r>
       <r>   -13.7813     0.4483     2.0467 </r>
       <r>   -13.6772    15.5027     3.6611 </r>
       <r>   -13.5731     3.2533     3.9999 </r>
       <r>   -13.4689     0.0009     4.0000 </r>
       <r>   -13.3648     0.0000     4.0000 </r>
       <r>   -13.2606     0.0000     4.0000 </r>
       <r>   -13.1565     0.0000     4.0000 </r>
       <r>   -13.0524     0.0000     4.0000 </r>
       <r>   -12.9482     0.0000     4.0000 </r>
       <r>   -12.8441     0.0000     4.0000 </r>
       <r>   -12.7399     0.0000     4.0000 </r>
       <r>   -12.6358     0.0000     4.0000 </r>
       <r>   -12.5317     0.0000     4.0000 </r>
       <r>   -12.4275     0.0000     4.0000 </r>
       <r>   -12.3234     0.0000     4.0000 </r>
       <r>   -12.2193     0.0000     4.0000 </r>
       <r>   -12.1151     0.0000     4.0000 </r>
       <r>   -12.0110     0.0000     4.0000 </r>
       <r>   -11.9068     0.0000     4.0000 </r>
       <r>   -11.8027     0.0000     4.0000 </r>
       <r>   -11.6986     0.0000     4.0000 </r>
       <r>   -11.5944     0.0000     4.0000 </r>
       <r>   -11.4903     0.0000     4.0000 </r>
       <r>   -11.3862     0.3522     4.0367 </r>
       <r>   -11.2820    27.3540     6.8853 </r>
       <r>   -11.1779    10.6963     7.9992 </r>
       <r>   -11.0737     0.0079     8.0000 </r>
       <r>   -10.9696     0.0000     8.0000 </r>
       <r>   -10.8655     0.0000     8.0000 </r>
       <r>   -10.7613     0.0000     8.0000 </r>
       <r>   -10.6572     0.0000     8.0000 </r>
       <r>   -10.5530     0.0000     8.0000 </r>
       <r>   -10.4489     0.0000     8.0000 </r>
       <r>   -10.3448     0.0000     8.0000 </r>
       <r>   -10.2406     0.0000     8.0000 </r>
       <r>   -10.1365     0.0000     8.0000 </r>
       <r>   -10.0324     0.0000     8.0000 </r>
       <r>    -9.9282     0.0000     8.0000 </r>
       <r>    -9.8241     0.0000     8.0000 </r>
       <r>    -9.7199     0.0000     8.0000 </r>
       <r>    -9.6158     0.0000     8.0000 </r>
       <r>    -9.5117     0.0000     8.0000 </r>
       <r>    -9.4075     0.0000     8.0000 </r>
       <r>    -9.3034     0.0000     8.0000 </r>
       <r>    -9.1992     0.0000     8.0000 </r>
       <r>    -9.0951     0.0000     8.0000 </r>
       <r>    -8.9910     0.0000     8.0000 </r>
       <r>    -8.8868     0.0000     8.0000 </r>
       <r>    -8.7827     0.9818     8.1022 </r>
       <r>    -8.6786    16.4016     9.8103 </r>
       <r>    -8.5744     1.8216    10.0000 </r>
       <r>    -8.4703     0.0002    10.0000 </r>
       <r>    -8.3661     0.0000    10.0000 </r>
       <r>    -8.2620     0.0000    10.0000 </r>
       <r>    -8.1579     0.0000    10.0000 </r>
       <r>    -8.0537     0.0000    10.0000 </r>
       <r>    -7.9496     0.0000    10.0000 </r>
       <r>    -7.8455     0.0000    10.0000 </r>
       <r>    -7.7413     0.0000    10.0000 </r>
       <r>    -7.6372     0.0000    10.0000 </r>
       <r>    -7.5330     0.0000    10.0000 </r>
       <r>    -7.4289     0.0000    10.0000 </r>
       <r>    -7.3248     0.0000    10.0000 </r>
       <r>    -7.2206     0.0000    10.0000 </r>
       <r>    -7.1165     0.0000    10.0000 </r>
       <r>    -7.0123     0.0000    10.0000 </r>
       <r>    -6.9082     0.0000    10.0000 </r>
       <r>    -6.8041     0.0000    10.0000 </r>
       <r>    -6.6999     0.0000    10.0000 </r>
       <r>    -6.5958     0.0000    10.0000 </r>
       <r>    -6.4917     0.0000    10.0000 </r>
       <r>    -6.3875     0.0000    10.0000 </r>
       <r>    -6.2834     0.0000    10.0000 </r>
       <r>    -6.1792     0.0000    10.0000 </r>
       <r>    -6.0751     0.0000    10.0000 </r>
       <r>    -5.9710     0.0000    10.0000 </r>
       <r>    -5.8668     0.0000    10.0000 </r>
       <r>    -5.7627     0.0000    10.0000 </r>
       <r>    -5.6585     0.0000    10.0000 </r>
       <r>    -5.5544     0.0000    10.0000 </r>
       <r>    -5.4503     0.0000    10.0000 </r>
       <r>    -5.3461     0.0000    10.0000 </r>
       <r>    -5.2420     0.0000    10.0000 </r>
       <r>    -5.1379     0.0000    10.0000 </r>
       <r>    -5.0337     0.0000    10.0000 </r>
       <r>    -4.9296     0.0000    10.0000 </r>
       <r>    -4.8254     0.0000    10.0000 </r>
       <r>    -4.7213     0.0000    10.0000 </r>
       <r>    -4.6172     0.0000    10.0000 </r>
       <r>    -4.5130     0.0000    10.0000 </r>
       <r>    -4.4089     0.0000    10.0000 </r>
       <r>    -4.3047     0.0000    10.0000 </r>
       <r>    -4.2006     0.0000    10.0000 </r>
       <r>    -4.0965     0.0000    10.0000 </r>
       <r>    -3.9923     0.0000    10.0000 </r>
       <r>    -3.8882     0.0000    10.0000 </r>
       <r>    -3.7841     0.0000    10.0000 </r>
       <r>    -3.6799     0.0000    10.0000 </r>
       <r>    -3.5758     0.0000    10.0000 </r>
       <r>    -3.4716     0.0000    10.0000 </r>
       <r>    -3.3675     0.0000    10.0000 </r>
       <r>    -3.2634     0.0000    10.0000 </r>
       <r>    -3.1592     0.0000    10.0000 </r>
       <r>    -3.0551     0.0000    10.0000 </r>
       <r>    -2.9510     0.0000    10.0000 </r>
       <r>    -2.8468     0.0000    10.0000 </r>
       <r>    -2.7427     0.0000    10.0000 </r>
       <r>    -2.6385     0.0000    10.0000 </r>
       <r>    -2.5344     0.0000    10.0000 </r>
       <r>    -2.4303     0.0000    10.0000 </r>
       <r>    -2.3261     0.0000    10.0000 </r>
       <r>    -2.2220     0.0000    10.0000 </r>
       <r>    -2.1178     0.3385    10.0353 </r>
       <r>    -2.0137    27.1775    12.8655 </r>
       <r>    -1.9096    10.8861    13.9991 </r>
       <r>    -1.8054     0.0084    14.0000 </r>
       <r>    -1.7013     0.0000    14.0000 </r>
       <r>    -1.5972     0.0000    14.0000 </r>
       <r>    -1.4930     0.0000    14.0000 </r>
       <r>    -1.3889     0.0000    14.0000 </r>
       <r>    -1.2847     0.0000    14.0000 </r>
       <r>    -1.1806     0.0000    14.0000 </r>
       <r>    -1.0765     0.0000    14.0000 </r>
       <r>    -0.9723     0.0000    14.0000 </r>
       <r>    -0.8682     0.0000    14.0000 </r>
       <r>    -0.7640     0.0000    14.0000 </r>
       <r>    -0.6599     0.0000    14.0000 </r>
       <r>    -0.5558     0.0000    14.0000 </r>
       <r>    -0.4516     0.0000    14.0000 </r>
       <r>    -0.3475     0.0006    14.0001 </r>
       <r>    -0.2434     2.7278    14.2841 </r>
       <r>    -0.1392    15.8922    15.9391 </r>
       <r>    -0.0351     0.5846    16.0000 </r>
       <r>     0.0691     0.0000    16.0000 </r>
       <r>     0.1732     0.0000    16.0000 </r>
       <r>     0.2773     0.0000    16.0000 </r>
       <r>     0.3815     0.0000    16.0000 </r>
       <r>     0.4856     0.0000    16.0000 </r>
       <r>     0.5897     0.0000    16.0000 </r>
       <r>     0.6939     0.0000    16.0000 </r>
       <r>     0.7980     0.0000    16.0000 </r>
       <r>     0.9022     0.0000    16.0000 </r>
       <r>     1.0063     0.0000    16.0000 </r>
       <r>     1.1104     0.0000    16.0000 </r>
       <r>     1.2146     0.0000    16.0000 </r>
      </set>
     </set>
    </array>
   </total>
  </dos>
 </calculation>
 <structure name="finalpos" >
  <crystal>
   <varray name="basis" >
    <v>       8.00000000       0.00000000       0.00000000 </v>
    <v>       0.00000000       8.00000000       0.00000000 </v>
    <v>       0.00000000       0.00000000       8.00000000 </v>
   </varray>
   <i name="volume">    512.00000000 </i>
   <varray name="rec_basis" >
    <v>       0.12500000       0.00000000       0.00000000 </v>
    <v>       0.00000000       0.12500000       0.00000000 </v>
    <v>       0.00000000       0.00000000       0.12500000 </v>
   </varray>
  </crystal>
  <varray name="positions" >
   <v>       0.00000000       0.00000000       0.00000000 </v>
   <v>       0.00000000       0.00000000       0.14540000 </v>
  </varray>
 </structure>
</modeling>
